# vtk DataFile Version 4.2
vtk output
ASCII
DATASET POLYDATA
POINTS 5000 double
-62.257455303 -29.867905975 12.07943675 -62.499314679 -31.693982092 11.277385452 -61.856715785 -30.056302082 10.341008939 
-61.987584831 -28.369153523 10.822659881 -63.1391537 -35.980992158 10.553240772 -62.845119246 -34.343343154 11.049537771 
-62.464915838 -33.003337222 10.070430894 -63.668948059 -37.401701805 10.06241914 -62.617184865 -34.758494777 9.1307537448 
-62.09821595 -31.31167539 9.2590404082 -61.7955004 -29.064327074 8.7567152092 -62.021348731 -27.128078437 9.5773313825 
-63.007907813 -36.510425862 8.3463908817 -63.825157073 -38.511082781 8.7839173794 -62.43446531 -32.899482785 8.2021546248 
-62.193301878 -30.837763509 7.5652729083 -61.702525024 -27.279988663 7.6921301721 -61.931099308 -25.612286854 8.4038154289 
-63.43032193 -37.971731448 7.0117108425 -62.807759192 -34.554391416 7.2431080332 -64.329624946 -39.827792092 7.5950870445 
-62.026366433 -29.035279075 6.8126796134 -61.99614765 -24.121503289 7.4615770535 -63.185882971 -36.081454428 6.2416522661 
-62.61623171 -32.526275893 6.4173459472 -61.635373026 -25.45879719 6.2675896889 -63.976487965 -39.445843724 5.763371292 
-62.43426612 -30.648453247 5.6880905888 -61.886899673 -27.258191346 5.8974271249 -63.019635628 -34.138084046 5.3318675721 
-61.971735467 -23.130388828 6.0426626496 -63.586612948 -37.572179259 5.0641682314 -62.254732294 -28.736530342 4.90596255 
-61.735504319 -24.331762511 4.6671668247 -64.770871988 -40.822775945 4.4370391107 -62.851782929 -32.255460991 4.4999111796 
-63.4161894 -35.653157213 4.1914322089 -62.004625737 -26.493039938 4.2651729745 -64.045261901 -39.140973034 3.8634982997 
-62.648849785 -30.312566951 3.8469582488 -62.14749258 -22.213523464 4.4622342988 -63.799608383 -37.210921766 3.1873666988 
-63.2617941 -33.831713088 3.3311152673 -62.432851959 -28.259972128 3.1682579023 -61.99831097 -25.023801699 3.0266889197 
-62.171347618 -23.233082659 2.8640805927 -64.798505396 -40.697307726 2.5819727425 -63.067752969 -31.872522897 2.5993500271 
-64.23009613 -38.85852793 2.0383200839 -63.677733635 -35.359631121 2.0700906413 -62.860158975 -30.023092789 2.0776960063 
-62.320546282 -26.554302671 2.1848293221 -64.054809894 -37.175833343 1.3834066584 -63.456150618 -33.311999539 1.4353094661 
-62.714471489 -28.253846762 1.2550649139 -62.457786384 -24.617855373 1.2446864687 -64.704686734 -40.178098029 0.87487213408 
-65.681831821 -41.857842972 0.88714823746 -63.808794112 -34.483152372 0.23458836748 -63.325686484 -31.613456156 0.54569351031 
-64.465725596 -38.494494963 -0.055651518205 -64.121757957 -36.288096963 -0.020216615378 -63.109767088 -29.89709408 0.30027841203 
-62.717246643 -26.614501347 0.3481676735 -65.041735201 -40.605769385 -0.72889574021 -63.715424446 -32.825977559 -0.8556317002 
-63.208155187 -28.440290374 -0.66640401142 -63.163909887 -25.163981515 -0.5515648973 -66.082592888 -42.105908766 -1.2100704083 
-64.485569275 -37.17637069 -1.5978415415 -64.137731729 -35.01687871 -1.4771242681 -63.580587416 -30.458245951 -1.3902342662 
-64.82286193 -39.075122261 -1.8755693819 -63.585404425 -26.88275667 -1.4417447696 -63.914169672 -31.768613841 -2.4750577221 
-65.468877133 -40.867908443 -2.5712374329 -64.120156165 -33.71967426 -2.7003371822 -64.064651323 -28.696255397 -2.39215177 
-64.507575008 -35.928139511 -3.072162549 -64.850749871 -37.798082221 -3.4669252735 -65.177586642 -39.467692992 -3.7436145039 
-64.45662807 -30.2067521 -3.572030787 -64.506086132 -34.713847532 -4.3448407241 -64.253461986 -32.477188497 -4.1061020448 
-65.881223835 -40.820664612 -4.6005087421 -64.909169848 -36.777118035 -4.9311143078 -64.646837414 -31.177612936 -5.2690416712 
-65.367576374 -38.854360729 -5.5059612884 -64.52187185 -33.484253017 -5.6264547962 -64.875370515 -35.358723116 -6.1865915979 
-66.409714696 -40.542866359 -6.3509758031 -65.341630349 -37.258271684 -6.7396546487 -64.627317305 -32.229437974 -6.7905373587 
-66.125016351 -38.955164936 -7.3900138495 -64.849712944 -33.915208913 -7.5481929708 -65.006678654 -30.564612763 -7.2166467715 
-65.222675142 -35.702164877 -8.0575544765 -65.890707661 -37.408216713 -8.6148628352 -64.893699724 -32.18029322 -8.6408601053 
-65.145835032 -34.062509071 -9.4183685221 -65.577093617 -35.842953281 -9.9215582914 -65.321546295 -31.178569221 -10.016106407 
-66.471789512 -37.477274522 -10.441025983 -65.294206283 -32.751299463 -10.756535214 -65.716127576 -34.372787755 -11.423972266 
-66.348480286 -35.955885245 -11.618825283 -65.866473751 -31.15102781 -11.768548449 -66.186304664 -32.931709189 -12.577137942 
-62.969056154 -31.431975438 13.052222683 -62.848436103 -29.68939647 13.788763017 -62.771314495 -28.088751355 12.588785366 
-63.267113036 -33.279601213 12.380634616 -63.899960945 -35.308880786 12.329495246 -64.545534966 -37.096811411 11.929707077 
-63.137643992 -26.823912082 11.375907459 -64.807280914 -38.689691709 10.748696395 -63.118812297 -25.510147619 10.020425343 
-65.062810636 -40.02260592 9.4803234051 -63.087667096 -23.963029764 8.9297885452 -65.564836694 -41.335492293 8.2194588437 
-62.944557821 -22.466373566 7.6108832453 -65.032994825 -41.103105153 6.3142936259 -62.623138289 -21.211382473 6.1730864467 
-65.865202191 -42.300377198 4.911693838 -62.722309725 -20.23445591 4.5659099166 -65.835462314 -42.183852748 3.0261179892 
-62.672287419 -21.2234881 2.8433743732 -66.722719 -43.259228253 1.7812388738 -62.8497225 -22.427388502 1.2952135192 
-63.545449364 -20.510727613 1.1512851703 -66.932668818 -43.313897954 -0.092407714034 -63.18993127 -23.497273797 -0.21384816829 
-63.723782844 -21.83759028 -0.44679270056 -67.386753177 -43.358469808 -2.0362218129 -63.890359122 -23.267833608 -2.0076076796 
-63.748739648 -25.117794872 -2.1737909917 -66.587692413 -42.163141486 -3.2998730984 -64.125283696 -26.735895133 -3.200551206 
-64.095622983 -24.58927418 -3.7511176708 -64.515544618 -28.206645215 -4.285451738 -64.544644377 -22.710849279 -3.8182152322 
-67.81288001 -43.433777029 -4.0582384156 -64.327356588 -26.109083736 -4.9561183807 -67.092628669 -42.175536516 -5.2928782696 
-64.859683818 -29.385368639 -5.6429640223 -64.565008651 -24.137809525 -5.4496740495 -64.694124006 -27.436242877 -6.1928219409 
-64.636875159 -25.514743524 -6.8294403552 -67.813498484 -41.940269718 -7.0585747489 -65.064296221 -28.635735187 -7.5564367732 
-64.969952484 -23.614004654 -7.2660276373 -67.133451339 -40.537700801 -8.2085285168 -65.006205872 -26.773623738 -8.1715819205 
-64.949702696 -24.835322975 -8.7241556942 -65.311712808 -29.928980175 -8.8762255095 -66.855649825 -38.97989401 -9.2839041231 
-68.389986889 -41.879228224 -8.9523381089 -65.285332537 -28.071739425 -9.5231798815 -67.841677938 -40.452543348 -10.100838418 
-65.14346079 -26.183810615 -10.105720017 -65.296395511 -22.941542522 -9.2800922786 -65.625659621 -29.481124552 -10.78701062 
-65.263940968 -24.261397314 -10.636159531 -67.580732883 -38.830582502 -11.195336533 -65.499321456 -27.691687959 -11.455828417 
-65.464608428 -25.891622742 -12.000962775 -67.237098262 -37.184975589 -12.333287649 -66.091080852 -29.31028684 -12.618969166 
-65.821543128 -24.113763517 -12.359302819 -66.927589769 -34.960512022 -13.131968974 -68.297283641 -38.517395848 -13.052257485 
-66.05127554 -27.47597404 -13.293422214 -66.698753458 -31.033337072 -13.409556988 -66.331226214 -25.598799539 -13.724897339 
-68.086211252 -36.582047161 -13.901147651 -67.177393178 -33.141343052 -14.058560096 -66.970455903 -29.047640303 -14.297342778 
-68.125138209 -34.837795591 -14.750478902 -63.71781946 -31.169064723 14.859079307 -63.676077147 -29.366412686 15.394375134 
-63.981665429 -32.690536227 14.056729634 -63.609820699 -28.017844281 14.143369782 -64.544400973 -34.267230158 13.837227903 
-65.183592905 -35.998816383 13.724844907 -65.753571247 -38.881364265 12.424354942 -65.96529757 -40.301911733 11.288546017 
-66.32589332 -41.595911337 10.012133824 -66.81797888 -42.880493505 8.6902052095 -66.2085227 -42.53853158 6.8791421867 
-64.121833994 -20.966456827 7.5960916478 -67.042648797 -43.557898037 5.547509759 -63.681123855 -19.527940412 6.3220233559 
-63.72299373 -18.531986053 4.7019699369 -67.054609141 -43.707207374 3.8025844022 -63.490099868 -19.420477357 2.804144022 
-67.751308292 -44.604536932 2.4606845406 -67.929515857 -44.716974276 0.78840326214 -64.230213422 -18.572326524 0.98233946968 
-64.460284679 -20.215363038 -0.55692139092 -68.32667389 -44.659598947 -0.95415230329 -64.655325634 -21.474150775 -2.2169292962 
-68.676672572 -44.635407532 -2.8077524945 -64.875472021 -20.780446863 -4.1819256216 -69.04624859 -44.688313659 -4.7584937676 
-64.828602852 -22.272601692 -5.69689052 -68.545095901 -43.44872458 -6.0088288428 -65.111211127 -19.330468579 -5.3971613485 
-64.955470483 -20.626462551 -6.3992709975 -69.263056242 -43.235329698 -7.7680890157 -65.163946291 -21.867103514 -7.7598937512 
-65.471450656 -20.119423312 -8.2585351363 -65.418225704 -20.990290402 -9.7249502798 -64.495788874 -13.503881476 -8.532986002 
-64.21994771 -11.707117574 -9.2747185693 -64.919954659 -16.771683785 -9.7765468736 -64.969199308 -15.324396478 -8.2370868735 
-64.527179768 -14.915799814 -10.092748765 -65.426683635 -18.683998054 -9.4593281773 -64.203520076 -13.110266369 -10.360927326 
-69.122419278 -41.722092823 -10.91750771 -65.610591692 -22.164633361 -11.157192552 -65.43649396 -19.848939656 -11.167956276 
-65.114402355 -17.922443665 -11.371058015 -64.564256238 -10.336598434 -10.307755001 -64.773201458 -16.036650642 -11.699551586 
-68.660531285 -40.228856169 -11.983356232 -64.512965144 -14.119763147 -11.982494809 -64.401363087 -12.104642062 -11.778753007 
-66.05086593 -22.477915049 -12.865407189 -65.994602347 -20.716653322 -12.749992372 -65.575532671 -18.899304864 -13.025968681 
-65.180219303 -17.070241255 -13.324338988 -69.436360384 -39.859785559 -13.762360928 -64.912174099 -15.193226997 -13.602164559 
-64.818208736 -13.260460597 -13.678003035 -65.199941658 -11.501829584 -13.649685613 -66.569958319 -23.759496753 -14.167301095 
[...]
POINT_DATA 5000
SCALARS thickness_change_(mm) double
LOOKUP_TABLE default
0 0 0 0 0 0 0 0 0 
0 0 0 0 0 0 0 0 0 
0 0 0 0 0 0 0 0 0 
0 0 0 0 0 0 0 0 0 
0 0 0 0 0 0 0 0 0 
0 0 0 0 0 0 0 0 0 
0 0 0 0 0 0 0 0 0 
0 0 0 0 0 0 0 0 0 
0 0 0 0 0 0 0 0 0 
0 0 0 0 0 0 0 0 0 
0 0 0 0 0 0 0 0 0 
0 0 0 0 0 0 0 0 0 
0 0 0 0 0 0 0 0 0 
0 0 0 0 0 0 0 0 0 
0 0 0 0 0 0 0 0 0 
0 0 0 0 0 0 0 0 0 
0 0 0 0 0 0 0 0 0 
0 0 0 0 0 0 0 0 0 
0 0 0 0 0 0 0 0 0 
0 0 0 0 0 0 0 0 0 
0 0 0 0 0 0 0 0 0 
0 0 0 0 0 0 0 0 0 
0 0 0 0 0 0 0 0 0 
0 0 0 0 0 0 0 0 0 
0 0 0 0 0 0 0 0 0 
0 0 0 0 0 0 0 0 0 
0 0 0 0 0 0 0 0 0 
0 0 0 0 0 0 0 0 0 
0 0 0 0 0 0 0 0 0 
0 0 0 0 0 0 0 0 0 
0 0 0 0 0 0 0 0 0 
0 0 0 0 0 0 0 0 0 
0 0 0 0 0 0 0 0 0 
0 0 0 0 0 0 0 0 0 
0 0 0 0 0 0 0 0 0 
0 0 0 0 0 0 0 0 0 
0 0 0 0.63848765619 0 0 0.051668183756 0 0 
0 0 0 0 0 0 -1.111506029 0 0 
0 0 0 0 0 0 0 0 0 
0 0 0 0 0 0 0 0 0 
0 0 0 0 0 0 0 0 0 
0 0 0 0 0 0 0 0 0 
0 0 0 0 0 0 0 0 0 
0 0 0 0 0 0 0 0 0 
0 0 0 0 0 0 0 0 0 
0 0 0 -0.2978172989 -0.4292622333 0 0 -0.055799832007 0 
0.31869555308 0 0.17036758016 0 0 -0.75008040269 0 0 0 
0 0.32528538575 0 0.33804615678 0 0 0 0.78550940964 0 
0 0 0 0 0 0 0 0 0 
0 0 0 0 0 0 0 0 0 
0 0 0 0 0 0 0 0 0 
0 0 0 0 0 0 0 0 0 
0 0 -1.2474133584 0 0 -0.74819141091 0 -0.58670354012 0 
-0.6641848368 0 -0.39663142715 0 -1.0956219092 0 0 -0.34060018901 0 
-0.2467123036 0 -0.091138387944 0 0 -0.1638955345 0 0 0.11857557817 
0 0 0.069801958671 0 0.13695756355 0 0 0 0 
0 0 0 0 0 0 0 0 0 
0 0 0 0 0 0 0 0 0 
0 0 0 0 0 0 -0.77374434827 0 -0.5649512293 
0 -0.76926204022 0 0 0 0 -0.81526871036 -1.1299795408 0 
0 0 -0.24206796273 0 0 0 0 0.10714061945 0 
0 0 0 0 0.32681290219 0 0 0 0 
0 0 0 0 0 0 0 0 0 
0 0 0 0 0 0 0 0 0 
0 0 0 0 0 0 -0.62774236333 0 0 
0 -0.070597741291 0 0.23812431993 0 -0.36256018195 0 0 -0.6023653332 
0 -0.52671811762 0 -0.46898302399 0 -0.25541486656 0 -0.20928235433 0 
-0.096999709516 -0.040434886849 0 -0.16863345261 0 0 0 0 0 
-0.086299590564 0 0 0 0 0 0 0 0 
0 0 0 0 0 0 0 0 0 
0 0 0 0 0 -0.021909807373 0 -0.38805732266 0 
-0.64186185399 0 -0.061715874111 0 0 0 -0.23659736478 0 -0.46125872325 
0 -0.56186699354 0 -0.53352683004 0 0 -0.27639277382 0 -0.1421129239 
0 -0.11009855125 -0.13309093491 0 0 -0.28205476862 -0.339237869 0 -0.19775925115 
0 -0.35742142065 -0.24859503819 -0.15963414665 -0.59620099367 0.17741127865 0 0 0 
0 0 0 0 0 0 0 0 0 
0 0 0 0 0 0 0 0 0 
0 0 0 0.098830983668 0 -0.002142805036 -0.030297543215 0 -0.46794187457 
0 0 -0.015699277353 -0.37249691069 0 0 0 -0.36757740015 0 
-0.19171942369 0 -0.4353804454 0 0 0 0 -0.25115980615 0 
-0.13498921642 0.013179704485 0 0.15557219647 -0.18238040241 -0.18437082662 -0.13725218604 -1.1800606928 0.032676615693 
0.053351468495 0 0 0 0 0 0 0 0 
0 0 0 0 0 0 0 0 0.65116876594 
0 0 0 -0.30657505951 -0.21905597247 0 -0.096950150426 -0.00061769576197 0 
0 0 -0.0028328820577 -0.1731254648 0 0 -0.37266768809 0 -0.19388664946 
0 0 0.087328476617 0.079992464836 0 -0.13905103006 0 0 0 
-0.9544072 0.043692852558 -0.12863927675 -0.39475025861 -0.045769158529 -0.071827431043 -0.21501148884 0 0 
0 0 0 0 0 0 0 0 0 
0 0 0 0 0 0 0 0 -0.38566500378 
-0.00948902739 0 0 -0.17782924624 0 0 0 -0.25845841238 0 
-0.24472332163 0 0 0 -0.17364527597 0 -0.23208174438 0 0 
-0.065634051615 -0.20848571727 0 -0.030363518974 -0.0053733898441 -0.23505599113 0 -0.46823169903 -0.20897294215 
-0.71796594873 -0.11898328322 -0.17401370154 -0.16532430634 -0.25955964049 -0.39281949756 -0.1900111642 0 0 
0 0 0 0 0 0 0 0 0 
0 0 0 0 0 0 0 0 0 
-1.0702238402 0 0 -0.055690829136 0 -0.1060946208 0 -0.033026073948 -0.11908145303 
0 -0.31674127602 0 -0.30836838836 0.079423149294 0 0 0 -0.00062165766897 
-0.096339373501 0 -0.052316529953 0.12062799265 0 0.058600270467 0 -0.11067857689 0 
0.0094313181202 -0.17582850502 -0.29699618318 -0.12864549747 -0.27090888936 -0.048947948819 -0.078031792477 0 0 
0 0 0 0 0 0 0 0 0 
0 0 0 0 0 0 0 0 0 
0 0 0 0 0 0 -0.25741054509 0 -0.035846461135 
0 0 -0.025983440135 0 -0.060565549493 0 0 0 0 
0 -0.34228748738 -0.24757138675 0 -0.022785934688 0 0.10687182311 0 0 
0 0 -0.066667265651 0 -0.030080092466 0.0029166078025 -0.27481049896 -0.27189275594 -0.15569414983 
-0.15986246595 -0.17048030893 -0.28404449818 -0.19088939927 -0.1231169876 -0.30526502994 0 0 0 
0 0 0 0 0 0 0 0 0 
0 0 0 0 0 0 0 0 0 
0 0 0.044647987297 -0.035978782416 0 -0.056530893636 0 -0.0072508865426 0 
-0.17585469997 -0.0029177503288 0 -0.35494556579 0 -0.44584202553 0 -0.040759700642 0 
0 0 -0.2871310528 0 0 -0.059780399047 0 -0.031374663177 0.15892599684 
0.018029012374 0 -0.10519488558 -1.509868222 -0.12392584969 0.094272639762 -0.32424590301 -0.14503493093 -0.16264044388 
-0.15408786887 -0.078649311189 0 0 0 0 0 0 0 
0 0 0 0 0 0 0 0 0 
0 0 0 0 0 0 0 0 0 
0 -0.069915978909 0 0 -0.098966698975 0 -0.067932686749 0 0 
-0.10356690172 -0.26620293605 0 0 -0.10254473693 0 -0.024659821368 -0.030569099259 0 
-0.01102255078 0 -0.86656522307 -0.046170271711 -0.51998968057 -0.029383565327 -0.03003713276 -0.19460802646 -0.117208629 
-0.190393873 -0.14477750595 -0.14077482985 -0.17975210573 -0.19736763869 0.037321189394 -0.10342745132 0 0 
0 0 0 0 0 0 0 0 0 
0 0 0 0 0 0 0 0 0 
0 0 0 0 0 0 0 0.22335572885 0 
-0.045693807092 0.033362203021 -0.061292353955 0 -0.09343696026 0 0 0 -0.23455153709 
0 0.099009960475 0 0 -0.10122574438 -0.16483595403 0 -0.07451617614 0 
0 0.24503011366 0.24176896517 0.025001796162 0.18985616503 0.0068025011364 -0.37989269716 0.082827849278 -0.14933388572 
-0.10631783008 -0.14661050261 -0.055814043649 -0.11172980407 0.028474190504 -0.070325569443 -0.10148640144 -0.3275676535 0 
0 0 0 0 0 0 0 0 0 
0 0 0 0 0 0 0 0 0 
0 0 0 0 0 -0.12949660992 0 -0.0949099145 -0.043065402564 
0 -0.12796597037 0 0 0 0 -0.33842793449 0 -0.20833781815 
0 0 -0.17065338501 -0.025932274775 0 0.1207769514 -1.0928703282 -0.45785456904 0.080403180203 
-0.17707874307 0.036261816638 -0.15937890104 -0.00099879894426 -0.1249782614 -0.22032508403 -0.080491463929 0.058742736705 -0.043758340144 
0 0 0 0 0 0 0 0 0 
0 0 0 0 0 0 0 0 0 
0 0 0 0 0 0 0 0.19799218987 0.023803758454 
-0.056760635448 0 -0.10861068652 0 -0.041940226457 0 0 0.0057947848024 -0.064564955313 
0 -0.2228755622 0 -0.14593701527 0 -0.22634767637 0 0 -0.12122013291 
-0.94581529422 0.32100666216 0.12998077516 -0.54136804056 -0.038942366524 -0.096720781842 -0.16224913407 0.033442102616 -0.010964511536 
-0.12560096096 -0.030332730562 -0.10067161848 -0.11283543282 -0.12094377504 -0.25690298658 -0.13017891636 -0.047599266917 -0.23451819571 
0 0 0 0 0 0 0 0 0 
0 0 0 0 0 0 0 0 0 
0 0 0 0 0 0 -0.080675111722 0 0.21116802507 
0 -0.030910695871 -0.29281531024 -0.20556999111 0 0 -0.14832907434 -0.13600341435 0 
0 0 0.042311186472 0 -0.13104169291 0 0.033996023911 0 0.049160789722 
0.00095911074051 0.15989880965 -0.13306915498 0.20274261656 -0.051326721141 -0.10381780916 -0.017614946742 -0.12723706758 -0.11118653625 
-0.015280934004 -0.033241890192 -0.046600312945 0 0 0 0 0 0 
0 0 0 0 0 0 0 0 0 
0 0 0 0 0 0 0 -0.097938808481 0 
-0.14582617687 0 0 -0.23643065001 -0.22588088274 0 -0.082329741809 0 -0.12842741243 
0.013010625445 0 -0.082218559788 0.021555671617 0 0 -0.13954745555 -0.017526726618 -0.11318505616 
0.012153360005 -0.13257063062 0.039888123173 0.0031012089831 -0.091565463064 -0.050663722062 -0.029691619607 -0.080763320964 0.037834564241 
-0.080855986545 -0.041091724776 0 0 0 0 0 0 0 
0 0 0 0 0 0 0 0 0 
0 0 0 0 0 0 0 0 0.85343469176 
-0.03599182152 -0.15379084742 0 -0.20432719059 0 -0.24546355139 0 -0.16686432771 0 
0 -0.076533577998 0 -0.05509059712 0 0.14595839314 0 0.060279607414 0.1064838697 
0 -0.063861970602 -0.69970213199 -0.091794010922 0.089829232652 0.025417110423 0.036858871992 -0.040266407363 -0.063735314612 
-0.067482846438 -0.11480030706 -0.11893173917 -0.041935839072 -0.064306037434 -0.087410467237 0.067433919503 -0.11458728749 -0.008111998934 
0.0035613535828 -0.079266407213 -0.11808543338 0.06750223475 0.1469201158 0 0 0 0 
0 0 0 0 0 0 0 0 0 
0 0 0 0 0 0 0 0 0 
0 0 -0.16929968597 0 -0.048248920837 0 0 0.017304794206 0 
-0.038429875113 0 0 0 0 0 0.02708760966 0.055333660241 0 
-0.62560971302 0.027806003666 0.16077542016 0.048758379193 -0.17186462823 0.073921627929 -0.15139469044 -0.072768936103 -0.13278213917 
-0.17536979961 -0.23704969989 -0.017760356247 0.057490419169 0.1623168207 0 0 0 0 
0 0 0 0 0 0 0 0 0 
0 0 0 0 0 0 0 0 0 
-1.2574741125 -0.08358870877 -0.16820860655 0 -0.13164264257 0 0.013183987567 0 0 
0.029420997177 -0.017371585944 0.070835566355 -0.26195701899 0.013326266894 0.13966290071 0 -0.076102349888 -0.20674382735 
0.0043683733674 -0.087746820996 -0.0091363557678 -0.19482727278 -0.22258506884 -0.36644010775 -0.29741055443 -0.10295424607 -0.13352019339 
-0.082150580236 -0.24829824427 -0.2078982674 -0.11591333962 -0.013347370134 -0.094565901536 -0.079157396392 -0.18562054022 0.016859731607 
0 0 0 0 0 0 0 0 0 
0 0 0 0 0 0 0 0 0 
0 0 0 0 0 0 0 0 0 
-0.26924005334 -0.14684410517 0 0 -0.079949807128 -0.10343586474 0 -0.081535460665 0 
0 0 0 -0.52350579695 0 -0.21546164808 -0.076682015178 0.30694000387 0.29493092181 
-0.24922688872 -0.16378881674 -0.2901604829 0.13073527948 -0.0012628084538 -0.017086910232 -0.15896936464 0.030837500426 -0.27027213322 
-0.11474483385 -0.24342430487 0.077825545492 0.081120641192 0 0 0 0 0 
0 0 0 0 0 0 0 0 0 
0 0 0 0 0 0 0 0 0 
0 -0.11316863768 -0.15809944067 0 -0.51466232671 -0.16442054001 0 0 -0.24965553885 
0 -0.250399296 -0.084644564363 -0.20951745294 0 -0.039890140587 -0.267976697 -0.62174570358 -0.55447634982 
0.16690820909 -0.55013840746 -0.1326855883 1.1838842714 0.0027525124654 0 0.038203421691 0.059340933431 0.33568159132 
0.5232244753 -0.22321750056 -0.12235149916 -0.072007569393 -0.19229561846 -0.10692296331 -0.072089098918 -0.056021282706 -0.12346971834 
0 0 0 0 0 0 0 0 0 
0 0 0 0 0 0 0 0 0 
0 0 0 0 0 0 0 0 0 
0 -0.2678953998 -1.1166643316 0 -0.96625133583 -0.46712151364 -0.3932262922 -0.94594430786 0.42488698714 
-0.86897483918 -0.23832220254 0 -0.32240643349 0 0 0 -0.64317256543 0 
0 0 0 0 0 0 -0.13942935334 0 0 
0 -0.12639463397 0 0 0 0 0 -0.018330316202 0.68457945444 
-0.02588441458 -0.16872537329 0.24923224154 -0.29168275122 -0.1312020245 -0.27067404575 -0.097370933827 -0.19307778476 0 
0 0 0 0 0 0 0 0 0 
0 0 0 0 0 0 0 0 0 
0 0 0 -0.82641870582 0 0 -1.3706342675 0 -1.3998227735 
0 -0.84869551782 0 0 0 0 0 0 0 
0 0 0 0 0.14565796521 0 0 0 0 
0 0 0.31064155708 0 0 0 -0.08027433433 0 0.026744047915 
0 0 0 -0.078831559908 -0.12218238825 0 -0.13336036496 -0.070600388719 0.019684484083 
0 -0.15936761383 -0.066149556656 0 0.04422021483 0.1343664432 0.055885264579 -0.19428960417 -0.11954604644 
-0.063453262239 -0.19457612553 0 0 0 0 0 0 0 
0 0 0 0 0 0 0 0 0 
0 0 0 0 0 0 0 0 0 
0 0 0 0 0 0 0 0 0 
0 0 0 0 0 0 0 0 0 
0 0 0 0 0 0.25578436707 0 0 -0.15192335628 
0 0 0 0 0 0 0 0 0 
-0.034168767908 0 -0.15100589161 0 0 0 -0.054057902558 0 0.064660170887 
0.22953152607 0.037073900475 -0.2928128335 -0.096519532702 0 0 0 0 0 
0 0 0 0 0 0 0 0 0 
0 0 0 0 0 0 0 0 0 
0 0 0 0 0 0 0 0 0 
0 0 0 0 0 0 0 0 0 
0 0 0 0 0 0 0 0 0 
0 0 0 0.14008760862 0 0 0 -0.078396488382 0 
0.065916740057 0 0.16086865652 0 0 0 0 -0.083426651657 -0.021775018288 
0 0 -0.11066097705 -0.14594590709 0 0 0.057731791058 -0.080197935165 -0.26160526924 
-0.22823952408 0 0 0 0 0 0 0 0 
0 0 0 0 0 0 0 0 0 
0 0 0 0 0 0 0 0 0 
0 0 0 0 0 0 0 0 0.43376033121 
0 0 -0.018645479224 0 0 0 0.01224346977 0 0 
-0.012227700299 -0.043520532111 0 0.12450678683 -0.023968269681 0 0.10977302236 0.089122767718 0 
0.053926325829 0.073174368794 -0.20776628231 -0.26938687927 -0.21211700376 0 0 0 0 
0 0 0 0 0 0 0 0 0 
0 0 0 0 0 0 0 0 0 
0 0 0 0 0.096479472084 0 0 0 0.025642711412 
0 0.025220889085 -0.11732691842 0.008015194974 0 0 0.15920060578 0 0.21784814067 
0.073314062075 0 -0.68765798801 0.1577517104 0.031120137003 -0.082911513709 -0.18170324158 0 0 
0 0 0 0 0 0 0 0 0 
0 0 0 0 0 0 0 0 0 
0 0 0 0 0 0 0 0 0 
0 0 0.60979712074 0 0.30453714806 -0.025128492835 0 0 0 
-0.015047058906 0 0 0.035412447178 0.12505526448 0 0.069479153371 0.15380103493 0 
0.043256484643 0.19711962759 0.13582331118 -0.0065319217899 0 0 0 0 0 
0 0 0 0 0 0 0 0 0 
0 0 0 0 0 0 0 0 0 
0.59984768392 0 0 0 -0.0080864688574 0 0.0074907415352 0 0 
0.11762133672 0.044310446804 0 0.07719695104 0 0.10587981035 0.049115019656 -0.0184529519 -0.039577007409 
0 -0.0088891097284 -0.73554656715 -0.078918165949 0 0 0 0 0 
0 0 0 0 0 0 0 0 0 
0 0 0 0 0 0 0 0 0 
0 0 0 0 0 0 0 0.38502632464 0.25041343723 
0 0 -0.065077422084 0 0 0.035823365398 0.045177425753 0 0.046508060722 
0.05118515437 0 0 0.10007553855 0 0.1494254093 0.12787864127 0.094115164773 0 
0 0 0 0 0 0 0 0 0 
0 0 0 0 0 0 0 0 0 
0 0 0 0 0 0 0 0 0 
0 0 0 0.042306141509 0.21302041907 -0.10663414042 0 -0.1296439172 0 
0 0.041309981507 0 0.025272817434 0.048739089627 -0.10734420041 0 0.10184199355 0.045454197109 
0.089946762745 0.084033298914 -0.092654236552 0.039708617123 0 0 0 0 0 
0 0 0 0 0 0 0 0 0 
0 0 0 0 0 0 0 0 0 
0 -0.064179831364 0 -0.20736405525 0 0 -0.073766481606 -0.025678802335 0 
-0.019453458193 0 0.014941796604 0 -0.0096411739041 0 0.072941405285 -0.069438547765 0 
0 0 0 0 0 0 0 0 0 
0 0 0 0 0 0 0 0 0 
0 0 0 0 0 0 0 0 0 
0 0 0.16664849801 0 0.24154694015 0.14048277594 0 -0.23264636839 0 
0 -0.21129911273 0.0076860640761 0 0.073122123629 0.049240379372 0 0 0.10286749032 
0.093675471569 -0.15799417495 0.015503548286 0 0 0 0 0 0 
0 0 0 0 0 0 0 0 0 
0 0 0 0.5647568363 0 0.004264325885 0 -0.049409899159 0 
0 -0.046019578252 -0.059294020787 0 0 0.074687636133 0 0.011834907743 0.094820855739 
0.2341993981 -0.080803045917 0.11194726653 -0.24280572021 0.15781720548 0 0 0 0 
0 0 0 0 0 0 0 0 0 
0 0 0 0 0 0 0 0 0 
0 0 0 0 0 0 0 0 0 
0.10184339965 0 0.10821662684 0 -0.14687965806 0 0 0.0033696720882 -0.01073843833 
-0.011201232282 0 0 0 0 0 0 0 0 
0 0 0 0 0 0 0 0 0 
0 0 0 0 0 0 0 0 0 
0 0.077516678205 -0.16886470878 0 0 -0.10732323029 -0.046019218969 0 -0.023923990257 
0 0 0 -0.015933602296 0 0.088932889267 -0.28793810349 -0.34408974341 0.21855619619 
-0.041299275229 -0.10120382203 0 0 0 0 0 0 0 
0 0 0 0 0 0 0 0 0 
0 0 0 0 0 0 0 0 0.084220741953 
0 0.11307418433 0 0 0 -0.16676108941 0 0 -0.0077196750926 
0.099662239196 0.093641774367 0.087496978264 0.049985927116 0.14679840012 0 0 0 0 
0 0 0 0 0 0 0 0 0 
0 0 0 0 0 0 0 0 0 
0 0 0 0 0.11966798605 0 0.002205249889 -0.0042836005822 -0.050709806891 
-0.050211617488 0 -0.079953959681 0 -0.082345237022 0 0 0 0 
0 0.21480460282 -0.30131571649 -0.20366437492 -0.25202763329 -0.23662211894 0 0 0 
0 0 0 0 0 0 0 0 0 
0 0 0 0 0 0 0 0 0 
0.73055108463 0 -0.12896174358 0 0 -0.033455214803 0 0 0 
-0.059868503483 0 -0.061571831184 -0.12371743072 0 -0.14154122901 0 0.042706377164 -0.011218660315 
0 -0.018655275084 0 0.13740460464 0.2550216639 -0.05291078443 0.048628571778 -0.066637733022 -0.15865665661 
0 0 0 0 0 0 0 0 0 
0 0 0 0 0 0 0 0 0 
0 0 0 0 0 -0.15743628163 0 -0.032763725425 0 
-0.062148786852 0 0 -0.02933217047 0 0 0 -0.10910633474 -0.014094436163 
-0.041726738949 0 0.027340776088 0 -0.49169939468 0 0 0 0 
0 0 0 0 0 0 0 0 0 
0 0 0 0 0 0 0 0 0 
0 0 0 -0.17149721722 0.11089288694 0 0.027673595973 -0.070637019983 0 
0 -0.18896343002 0 0.074891783254 0 0 0 0.0053237421234 0.055701464721 
0.12327192314 0.065027401289 -0.22609749323 0.048073641828 -0.059302901728 0 0 0 0 
0 0 0 0 0 0 0 0 0 
0 0 0 0 0 0 0 0 0 
0 0 0 0 -0.20695064066 0 0 0.19644651423 0 
-0.018539113698 0 -0.05860174858 0 0 -0.10247124292 0 -0.13630525426 0 
0 -0.061633593784 0.057757568803 -0.013517942151 -0.32054157598 -0.30194228947 0 0 0 
0 0 0 0 0 0 0 0 0 
0 0 0 0 0 0 0 0 0 
0 0 0 0 0 0.27550127345 0 -0.091003737734 -0.10352157058 
0 -0.081858990382 0 0 0.015666015355 -0.097895279236 0 0 0 
-0.14135569842 0 -0.094268880725 0 0.082275652426 0 0.15261641547 0 0.036839925293 
0.091715056793 0.064481277218 0.060888328785 -0.047521729319 0.088319096942 0 0 0 0 
0 0 0 0 0 0 0 0 0 
0 0 0 0 0 0 0 0 0 
0 0.14292481734 0 -0.0099421864725 0 0 -0.33385390158 0.17879295288 0 
0 -0.11533270445 0 0 -0.095592796567 0 0.12499203987 0 0 
0.016819779011 0 0 0 -0.54540114027 -0.046801095642 0.15276558766 -0.12774360427 -0.058917062215 
0 0 0 0 0 0 0 0 0 
0 0 0 0 0 0 0 0 0 
0 0 0 0 0 0 0 -0.13987917546 -0.21200772824 
0 0 -0.32384065352 0 -0.014197295963 -0.066161125337 0 -0.070704055083 0 
0 0 -0.10390843546 0 0 0.098094451026 0 0 -0.021556656298 
-0.029131115244 0.30466317189 0.018327239472 -0.41969341315 -0.14898964935 0.067710080598 6.22465885e-05 -0.033507372602 -0.10911219225 
0 0 0 0 0 0 0 0 0 
0 0 0 0 0 0 0 0 0 
0 0 0 0.109608952 0 0 -0.0086951074721 0 0 
-0.11760561028 0 0.014573625939 -0.033223301297 0 0 -0.040317271205 0 -0.088103846657 
0 0.049986376311 0 0 0.16236884523 0 -0.0016906671105 0 -0.073564348118 
0 -0.029327951816 -0.4150925247 0.018667360327 0.018353464646 -0.082721287661 -0.058079486146 0.044313029334 0.1172234077 
-0.18131092499 0.029112540619 0 0 0 0 0 0 0 
0 0 0 0 0 0 0 0 0 
0 0 0 0 0 0 0 0 0 
-0.0049266727073 -0.04368585768 0 0 0 0 -0.070360811652 0 0 
-0.11148695537 0 -0.12641403126 -0.023726645417 0 0 0 -0.11008316513 0 
0 0 0.43910607672 -0.075666990389 -0.21194846536 -0.14231364824 0.020135045316 0.06911368057 -0.096174413131 
-0.28979125214 -0.19517916412 -0.055538766263 -0.013468042521 0 0 0 0 0 
0 0 0 0 0 0 0 0 0 
0 0 0 0 -0.44668709596 0 0.095208327505 0 0 
0 0 0.082838673476 0 -0.17058125684 0 -0.069704762316 -0.08816386275 0 
0 -0.097969098309 0 0 0 -0.13074241534 0 -0.095925167297 -0.15324641394 
-0.038800500618 -0.1017597482 -0.12794680775 -0.14078432486 -0.011660942419 -0.13793851528 -0.0017248426833 0.026181575541 0.028378020425 
0.097102701144 0 0 0 0 0 0 0 0 
0 0 0 0 0 0 0 0 0 
0 0 0 0 0 0 0 0 0 
0 0 -0.94835524086 0 0 0.11584279698 0 -0.042159723367 0 
0 -0.15668297635 0 -0.010452909377 0 0 -0.029643335816 0 -0.026888190127 
-0.036151282119 0 -0.11985749511 -0.097148427601 0 0 -0.28260286875 -0.88987329918 -0.18905340168 
0.031496047289 -0.1268798274 0.36332412191 0.058006345286 -0.092021138954 -0.067813281013 -0.088209237466 -0.049183834046 0.10781713036 
0.1745965909 0.1579771198 0 0 0 0 0 0 0 
0 0 0 0 0 0 0 0 0 
0 0 -0.20934541819 0 0 -0.076450206326 0 -0.1056502616 0 
0.040046931592 0 0 0 -0.027277377095 0 0 0 0 
0 0 0 -0.02829872584 0 -0.11069410006 -0.79970545728 0.12250612554 -0.20220286168 
-0.26190893899 -0.0160739004 -0.18286609654 0.097013909815 -0.10119410324 0.010166187084 -0.10276198885 -0.04688160604 -0.067914177295 
-0.013992455527 -0.023982897681 0.038238642229 0.0011125477503 -0.25850377767 0.040953159278 0.20637119417 0.063060317892 0 
0 0 0 0 0 0 0 0 0 
0 0 0 0 0 0 0 0 0 
0 0 0 0 0 0 0 0 0 
0 0 0 0 0 0.26833546782 0 0 -0.10104514494 
-0.50273819768 -0.76029405468 -0.010835333706 -0.56139052854 -0.090758995394 0 0 0 -0.024929434167 
-0.013803960986 0 0 0 0.00042892278471 -0.63224242877 0.072494063808 -0.13418526899 -0.057217697931 
-0.15958266257 -0.19084571981 -0.20770103268 0.11744658669 -0.14619989249 0.099973247787 -0.099294543936 -0.052999247415 -0.038794447508 
-0.023831005445 0.025223317768 0.025542556043 -0.043355583945 0.38543415361 0.39149123212 0 0 0 
0 0 0 0 0 0 0 0 0 
0 0 0 0 0 -0.19217648958 0.17795458227 -0.037538432216 0.063633094429 
-0.172708401 0.042763669708 0.25265747139 0.12250428532 0.29408163761 -0.12783175609 0.33431760734 0.021142878742 -0.012291824529 
0.10114039281 0.10704459807 -0.13041919298 0.10424173124 -0.086001195568 -0.037971273201 -0.063821248096 0.0056269962314 -0.011731548358 
-0.03888873011 -0.15137528154 0.11369633455 0.073296718747 -0.053621757272 0.091362694348 -0.13404762185 -0.038398010263 0.02457309333 
-0.044796532135 -0.043900029477 0 0 0 0 0 0 0 
0 0 0 0 0 0 0 0 0 
0 0 0 0 0 0 0 0 0 
0 0 0 0 0 0 0.14091916085 -0.18545897308 0.0041929229816 
-0.18898805982 0.011186769176 -0.18911306659 -0.19736640583 0.088526690691 -0.076056256172 -0.077660999038 -0.18688675896 0.085735056127 
-0.050767496704 -0.081566311357 0.049457092947 0.077762245692 -0.039442636664 0.12741538441 -0.041833044681 0.12432161672 0.090982741755 