# vtk DataFile Version 4.2
vtk output
ASCII
DATASET POLYDATA
POINTS 14996 double
-61.903937367 -29.651715219 11.128868566 -62.277705494 -30.559225327 11.695430937 -61.980402686 -30.591779963 10.616417377 
-62.515399235 -31.574567786 11.416475124 -61.80296138 -28.76095594 10.590546952 -62.143023035 -28.554180936 11.590852831 
-62.738244039 -35.324309356 10.161193188 -63.182817971 -36.05679886 10.676497748 -63.208866643 -35.288036728 11.334334453 
-62.76747812 -34.488286438 10.894201608 -62.553293288 -33.572767549 10.428953608 -62.264318611 -31.608700339 10.484739367 
-62.644385674 -32.596231753 10.980370066 -62.387560138 -32.618434857 9.9363286828 -61.755797144 -29.598918552 9.8361162959 
-62.158726313 -27.708380747 10.659366303 -62.977986705 -36.325417214 9.7146155124 -62.536652301 -34.432883953 9.6945589929 
-61.937827795 -30.661859658 9.5709649329 -61.742466739 -28.377210737 9.6366512541 -63.399281867 -37.328934516 9.6097162714 
-62.43439066 -33.458602376 9.2502011782 -62.16015455 -31.680674994 9.5244618041 -61.962583198 -27.29718763 9.6310430526 
-62.719788114 -35.402869763 9.0159633703 -63.827403479 -38.1655485 9.4049957177 -63.300286786 -37.647859068 8.4806653871 
-63.01585213 -36.705458749 8.7932655976 -62.592245711 -34.314154137 8.5659646831 -62.308490919 -32.428715639 8.8114608712 
-62.127109953 -31.268405406 8.5914469106 -61.934628328 -30.124851966 8.6383278999 -61.782047438 -29.064665614 8.7463238316 
-61.716998787 -27.828076137 8.6495370756 -63.693625496 -38.588505741 8.3049295729 -62.914957402 -36.023642979 8.1450216871 
-61.784132301 -26.540031153 8.6296928465 -62.79403211 -35.02453454 7.8425821887 -62.482004719 -33.198287308 8.1395613103 
-63.14652018 -36.950690501 7.5781283798 -62.337183906 -31.992479291 7.8177075896 -62.168315713 -30.774944048 7.6686455227 
-62.003446399 -29.638732494 7.6114994338 -61.829815272 -28.547575757 7.7513909987 -61.681745067 -27.215404647 7.7300223823 
-61.640092153 -25.900500673 7.6567276945 -62.225125725 -25.41005626 8.8882065235 -64.257168531 -39.543723708 8.1385001661 
-63.810085681 -39.119689716 7.2614476489 -63.425257077 -38.125284137 7.4445777035 -62.681381543 -33.919503509 7.4478553617 
-61.903355348 -24.815651158 7.9167050209 -63.018380188 -35.815968248 7.1219589528 -62.548508383 -32.731523746 7.1057887557 
-63.371535451 -37.608695083 6.6723410312 -62.893250727 -34.684755585 6.7857385924 -62.402125117 -31.525637179 6.8397261679 
-62.244774119 -30.336518919 6.6695028248 -61.855618772 -27.968203681 6.8882447973 -61.715548084 -26.81549247 6.7135733118 
-61.664264852 -24.649501954 6.9155272587 -64.100136817 -39.744235879 6.4657144484 -63.636676832 -38.615283116 6.253899704 
-63.23364239 -36.59344169 6.4562377312 -62.765533051 -33.484960781 6.3991070174 -62.070411195 -29.107097233 6.5764705075 
-61.620991458 -25.720400752 6.4522303027 -63.116333074 -35.492632929 6.0971218877 -62.63805819 -32.319142437 6.0468082073 
-61.894298614 -23.561947761 6.4711963977 -62.983620455 -34.3216421 5.7755781932 -62.500006336 -31.182286612 5.798400375 
-61.982486444 -27.925703898 5.93250899 -64.457260245 -40.349489909 5.6977749737 -63.924958336 -39.343028806 5.4407715079 
-63.473144645 -37.453232435 5.7184079957 -63.34004461 -36.314262939 5.418719172 -62.340910782 -30.035448985 5.6850894918 
-62.204276898 -28.913350511 5.4424960175 -61.846948074 -26.785679826 5.6699173347 -61.626507743 -24.629219102 5.8312031835 
-63.694169531 -38.26474521 5.1078904657 -63.209441619 -35.156009732 5.0960632512 -62.862690932 -33.118144945 5.3380656446 
-61.739913671 -25.691294464 5.3180529805 -61.75631569 -23.623133557 5.2804514986 -63.078750928 -33.980681827 4.755954184 
-62.746207182 -31.973698156 4.9323183549 -62.102781815 -27.775961618 4.9404677795 -64.246363366 -40.004351214 4.6083628601 
-64.828207686 -40.913032194 4.9145712418 -63.563400439 -37.114812494 4.7207892788 -62.612238071 -30.91939209 4.7430760209 
-62.44919197 -29.789310688 4.6748575662 -61.983302664 -26.685269085 4.6128388589 -61.70772516 -24.605059929 4.7491742077 
-63.934767212 -38.966906594 4.3274334863 -63.435321811 -35.975000217 4.3998550443 -62.965664593 -32.774933036 4.2617655609 
-62.330859224 -28.68489207 4.3243047982 -61.99963419 -22.730928693 4.757900065 -63.77966193 -37.850581786 4.0075835761 
-63.3054695 -34.829612928 4.0856513951 -61.884556374 -25.648199395 4.2198626411 -61.844200794 -23.565080445 3.9809934972 
-64.614549015 -40.589526109 3.7750223539 -64.197033933 -39.609347135 3.4959298959 -63.65668463 -36.733482318 3.6708329994 
-63.183548389 -33.695278714 3.7282543343 -62.873700894 -31.657466076 3.7148576878 -62.696216276 -30.55034238 3.770903738 
-62.561557376 -29.529691207 3.6220795276 -62.226740417 -27.587377496 3.8826721615 -61.834999418 -24.611836561 3.7557956909 
-63.999854777 -38.529911639 3.2288941734 -63.536033239 -35.643491991 3.3516095912 -62.120517224 -26.519696736 3.4883235231 
-62.187013025 -22.394370352 3.7983102729 -63.875727773 -37.441581609 2.9045428536 -63.409090676 -34.535025742 3.05636581 
-63.103442082 -32.635335787 3.160190473 -62.462044467 -28.477871614 3.1969554266 -62.022983039 -25.434660547 3.0882219837 
-65.215859712 -41.358075856 3.0903094825 -64.549894726 -40.319557947 2.7387957654 -63.765751398 -36.405596947 2.5685847964 
-63.308377117 -33.509074953 2.6669519352 -62.864956257 -30.727518119 2.7904903819 -62.35443498 -27.38219037 2.7815693292 
-61.999891609 -24.231319595 2.8182108778 -62.157149768 -23.148349315 2.9207726129 -64.231282305 -39.185208229 2.441314809 
-63.630034985 -35.274018365 2.3095990346 -63.090055672 -31.901182182 2.4753182836 -62.706339772 -29.500727185 2.5891852696 
-62.242053396 -26.240100403 2.380530103 -65.00893353 -40.999370441 2.0513746243 -64.081071164 -38.040727236 2.1185831576 
-62.59050032 -28.313649672 2.1340362703 -62.175105909 -25.020354376 2.0635006126 -64.51216865 -39.92885684 1.7097779089 
-63.996539738 -37.050550254 1.6540790208 -63.514547476 -34.186684237 1.9574463474 -63.346863728 -32.9353641 1.7929281192 
-63.075235326 -31.156299804 1.7890094406 -62.932986138 -30.159197374 1.7177159328 -62.371690251 -23.746187476 1.8449062227 
-64.295451182 -38.734121414 1.3930301791 -63.861826918 -36.043701702 1.5202498178 -62.813156675 -29.11014382 1.4392507299 
-62.472090913 -27.142586158 1.731925625 -64.911805807 -40.766707607 1.1041158873 -63.727352166 -34.920143759 1.2611619353 
-63.288626672 -32.016580433 1.2229882132 -62.383951444 -25.941379303 1.3587837837 -64.521352122 -39.479984175 0.74290671983 
-64.212426834 -37.736467139 0.88610944026 -63.595938523 -33.784275726 0.9678481558 -62.707490713 -28.000869271 1.0472843843 
-62.458884927 -24.767097882 1.0985402609 -65.6111137 -41.772215353 1.1736709013 -64.121494731 -36.706231694 0.42444835456 
-63.947097151 -35.703487581 0.56967052528 -63.512346948 -32.816289279 0.52134169823 -63.195980535 -30.970313179 0.75845576262 
-63.059407693 -29.904732555 0.59638426656 -62.624711691 -26.85654068 0.69426686499 -62.798167721 -23.739121924 0.78672629629 
-65.246839521 -41.249414518 0.19938040737 -64.781902606 -40.271181178 0.22000455877 -64.434091698 -38.510515139 0.1740644151 
-63.832777309 -34.626472009 0.22035955071 -62.952121548 -28.818959278 0.32220695375 -62.666051741 -25.724877766 0.35483373721 
-63.431629002 -31.821095328 0.033349360065 -62.905702501 -27.691467112 -0.020720744283 -62.912132755 -24.688529782 0.09320157707 
-64.659509072 -39.366443551 -0.42693102674 -64.353462856 -37.528240226 -0.31070490838 -64.067209069 -35.582436074 -0.38997820316 
-63.737278586 -33.605501763 -0.19978466283 -63.323841871 -30.719097434 -0.30107676845 -62.976341081 -26.580722236 -0.3455584946 
-64.931794714 -40.357500448 -0.76621810457 -64.268729468 -36.518005819 -0.79409130922 -63.654486043 -32.564973906 -0.71620235043 
-63.225085567 -29.590849464 -0.48858946375 -65.436164232 -41.400752243 -0.7868437172 -64.594852629 -38.43241618 -1.0238086273 
-63.967295275 -34.493344443 -0.85179747288 -63.571700585 -31.479602931 -1.1190412192 -63.22680064 -28.482610234 -0.75518208444 
-63.189525066 -25.490786677 -0.63317689234 -63.865732784 -33.380160002 -1.3219094138 -63.53168738 -30.337020288 -1.3417739659 
-63.370695246 -27.375778128 -1.048064301 -65.190678982 -40.708702362 -1.6521593834 -64.840768435 -39.444820632 -1.5821214541 
-64.503572172 -37.409355604 -1.4757070029 -64.190562487 -35.4129276 -1.4233860453 -63.605361191 -29.255864221 -1.529915227 
-63.540393382 -26.294870135 -1.3346366525 -65.793860306 -41.595600449 -1.8904365954 -64.405004306 -36.328356776 -1.9382797317 
-64.085492107 -34.277158702 -1.8985734827 -63.794064138 -32.205094956 -1.8750892162 -63.754382486 -28.15144001 -1.7159042043 
-65.088799961 -39.997971217 -2.4431187968 -64.746199786 -38.35969356 -2.1484108799 -63.819871373 -31.007460739 -2.1671199211 
-64.634755624 -37.221946567 -2.5822734906 -64.303521297 -35.174140883 -2.4582088827 -63.979497858 -33.094941752 -2.3527556023 
-64.0258834 -29.906008487 -2.3816940784 -65.487365658 -40.916020839 -2.6899667357 -64.972527642 -39.09632471 -2.8976929442 
-64.186569553 -33.967518945 -2.9176320007 -64.005643495 -31.743760132 -2.8894711237 -64.864020777 -38.061679197 -3.2797773611 
-64.521976741 -36.065665493 -3.0262010776 -66.191019596 -41.789210743 -2.8671895976 -65.274428844 -40.025258733 -3.5416183407 
-64.403241326 -34.864580085 -3.4763482313 -64.099794277 -32.707524115 -3.3150540211 -64.314697091 -30.586427406 -3.2250184388 
-65.738452134 -41.008771978 -3.6315245107 -64.746177405 -36.924852986 -3.668209334 -64.285240052 -33.633772457 -3.9058115039 
-65.114881699 -38.978328377 -3.994440454 -64.624348337 -35.742728123 -4.0768532507 -64.31017368 -31.55478471 -3.9194738509 
-64.978676514 -37.817003638 -4.3312707152 -64.503555627 -34.555041138 -4.4978747285 -64.27586249 -32.491583449 -4.3513057023 
-65.969943543 -41.030026666 -4.5264712075 -65.449688755 -39.969839959 -4.6082145456 -64.851669057 -36.62608531 -4.7100238824 
[...]
POINT_DATA 14996
SCALARS thickness_change_(mm) double
LOOKUP_TABLE default
0 0 0 0 0 0 0 0 0 
0 0 0 0 0 0 0 0 0 
0 0 0 0 0 0 0 0 0 
0 0 0 0 0 0 0 0 0 
0 0 0 0 0 0 0 0 0 
0 0 0 0 0 0 0 0 0 
0 0 0 0 0 0 0 0 0 
0 0 0 0 0 0 0 0 0 
0 0 0 0 0 0 0 0 0 
0 0 0 0 0 0 0 0 0 
0 0 0 0 0 0 0 0 0 
0 0 0 0 0 0 0 0 0 
0 0 0 0 0 0 0 0 0 
0 0 0 0 0 0 0 0 0 
0 0 0 0 0 0 0 0 0 
0 0 0 0 0 0 0 0 0 
0 0 0 0 0 0 0 0 0 
0 0 0 0 0 0 0 0 0 
0 0 0 0 0 0 0 0 0 
0 0 0 0 0 0 0 0 0 
0 0 0 0 0 0 0 0 0 
0 0 0 0 0 0 0 0 0 
0 0 0 0 0 0 0 0 0 
0 0 0 0 0 0 0 0 0 
0 0 0 0 0 0 0 0 0 
0 0 0 0 0 0 0 0 0 
0 0 0 0 0 0 0 0 0 
0 0 0 0 0 0 0 0 0 
0 0 0 0 0 0 0 0 0 
0 0 0 0 0 0 0 0 0 
0 0 0 0 0 0 0 0 0 
0 0 0 0 0 0 0 0 0 
0 0 0 0 0 0 0 0 0 
0 0 0 0 0 0 0 0 0 
0 0 0 0 0 0 0 0 0 
0 0 0 0 0 0 0 0 0 
0 0 0 0 0 0 0 0 0 
0 0 0 0 0 0 0 0 0 
0 0 0 0 0 0 0 0 0 
0 0 0 0 0 0 0 0 0 
0 0 0 0 0 0 0 0 0 
0 0 0 0 0 0 0 0 0 
0 0 0 0 0 0 0 0 0 
0 0 0 0 0 0 0 0 0 
0 0 0 0 0 0 0 0 0 
0 0 0 0 0 0 0 0 0 
0 0 0 0 0 0 0 0 0 
0 0 0 0 0 0 0 0 0 
0 0 0 0 0 0 0 0 0 
0 0 0 0 0 0 0 0 0 
0 0 0 0 0 0 0 0 0 
0 0 0 0 0 0 0 0 0 
0 0 0 0 0 0 0 0 0 
0 0 0 0 0 0 0 0 0 
0 0 0 0 0 0 0 0 0 
0 0 0 0 0 0 0 0 0 
0 0 0 0 0 0 0 0 0 
0 0 0 0 0 0 0 0 0 
0 0 0 0 0 0 0 0 0 
0 0 0 0 0 0 0 0 0 
0 0 0 0 0 0 0 0 0 
0 0 0 0 0 0 0 0 0 
0 0 0 0 0 0 0 0 0 
0 0 0 0 0 0 0 0 0 
0 0 0 0 0 0 0 0 0 
0 0 0 0 0 0 0 0 0 
0 0 0 0 0 0 0 0 0 
0 0 0 0 0 0 0 0 0 
0 0 0 0 0 0 0 0 0 
0 0 0 0 0 0 0 0 0 
0 0 0 0 0 0 0 0 0 
0 0 0 0 0 0 0 0 0 
0 0 0 0 0 0 0 0 0 
0 0 0 0 0 0 0 0 0 
0 0 0 0 0 0 0 0 0 
0 0 0 0 0 0 0 0 0 
0 0 0 0 0 0 0 0 0 
0 0 0 0 0 0 0 0 0 
0 0 0 0 0 0 0 0 0 
0 0 0 0 0 0 0 0 0 
0 0 0 0 0 0 0 0 0 
0 0 0 0 0 0 0 0 0 
0 0 0 0 0 0 0 0 0 
0 0 0 0 0 0 0 0 0 
0 0 0 0 0 0 0 0 0 
0 0 0 0 0 0 0 0 0 
0 0 0 0 0 0 0 0 0 
0 0 0 0 0 0 0 0 0 
0 0 0 0 0 0 0 0 0 
0 0 0 0 0 0 0 0 0 
0 0 0 0 0 0 0 0 0 
0 0 0 0 0 0 0 0 0 
0 0 0 0 0 0 0 0 0 
0 0 0 0 0 0 0 0 0 
0 0 0 0 0 0 0 0 0 
0 0 0 0 0 0 0 0 0 
0 0 0 0 0 0 0 0 0 
0 0 0 0 0 0 0 0 0 
0 0 0 0 0 0 0 0 0 
0 0 0 0 0 0 0 0 0 
0 0 0 0 0 0 0 0 0 
0 0 0 0 0 0 0 0 0 
0 0 0 0 0 0 0 0.42408596633 0 
0 0 0 0 0 0 0 0 0 
0 0 0 -0.0024856281053 0 0 -0.22778329326 0 0 
0 0 0 0 0 0 0 0 0 
0 0 0 0 0 0 0 0 -0.23703634075 
0 0 0 0 0 0 0 0 0 
0 0 0 0 0 0 0 0 0 
0 0 0 0 0 0 0 -0.17508056073 0 
0 0 0 0 0 0 0 0 0 
0 0 0 0 0 0 0 0 0 
0 0 0 0 0 0 0 0 0 
0 0 0 0 0 0 0 0 0 
0 0 0 0 0 0 0 0 0 
0 0 0 0 0 0 0 0 0 
0 0 0 0 0 0 0 0 0 
0 0 0 0 0 0 0 0 0 
0 0 0 0 0 0 0 0 0 
0 0 0 0 0 0 0 0 0 
0 0 0 0 0 0 0 0 0 
0 0 0 0 0 0 0 0 0 
0 0 0 0 0 0 0 0 0 
0 0 0 0 0 0 0 0 0 
0 0 0 0 0 0 0 0 0 
0 0 0 0 0 0 0 0 0 
0 0 0 0 0 0 0 0 0 
0 0 0 0 0 0 0 0 0 
0 0 0 0 0 0 0 0 0 
0 0 0 0 0 0 0 0 0 
0 0 0 0 0 0 0 0 -0.01124191357 
0 0 0 -0.17819108114 0 0 0 0 0.12744148701 
0 0.18986819566 0 -0.18207873185 0.15517406244 0 0 0 0.21827661109 
0 0 0 -0.54749367459 0.039415745306 0 0 0 0 
0 -0.53187034368 -0.028737821509 0 0 0 0 0.1388754645 0 
0 0 0 0.17667427682 0 0 0 0.16599062384 0 
0 0 0 0 0 0 0 0 0 
0 0 0 0 0 0 0 0 0 
0 0 0.62447005685 0 0 0 0 0 0.20670621791 
0 0 0 0 0 0 0 0 0 
0 0 0 0 0 0 0 0 0 
0 0 0 0 0 0 0 0 0 
0 0 0 0 0 0 0 0 0 
0 0 0 0 0 0 0 0 0 
0 0 0 0 0 0 0 0 0 
0 0 0 0 0 0 0 0 0 
0 0 0 0 0 0 0 0 0 
0 0 0 0 0 0 0 0 0 
0 0 0 0 0 0 0 0 0 
0 0 0 0 0 -0.90678053299 -1.3970535888 0 0 
-1.2062787256 0 -0.8473347899 0 0 0 0 0 -0.76511576485 
0 0 -0.40157294423 0 0 -0.79793945741 0 0 0 
-0.71832902968 0 -0.5506234593 0 0 -0.28798461797 0 0 -0.1577191682 
0 0 -0.74823479278 0 -0.24640682066 0 0 -0.44660823143 0 
0 -0.24388522243 -0.38155945557 0 0 -0.18235149566 0 0 0.12085478501 
0 0 0 0 0.023507744861 0 0 0.0013816046129 0 
0 0 0.039427133958 -0.093317676846 0 0 0 0 0 
0 0.068966857845 0 0 0 0.068272291668 0 0 0.3100439379 
0 0 0 0.37288499986 0.24125938529 0 0 0 0.44472098321 
0.47524982431 0 0 0 0.23342525302 0 -0.068459232075 0 0 
0 0 0 0 0 0 0 0 0 
0 0 0 0 0 0 0 0 0 
0 0 0 0 0 0 0 0 0 
0 0 0 0 0 0 0 0 0 
0 0 0 0 0 0 0 0 0 
0 0 0 0 0 0 0 0 0 
0 0 0 0 0 0 0 0 0 
0 0 0 0 0 0 0 0 0 
0 0 0 0 0 0 0 0 0 
0 0 0 0 0 0 0 -0.58064048497 0 
-1.4351357173 0 0 0 -1.5812002255 -0.76565131539 0 -1.4281783827 0 
0 -1.0983380278 0 0 0 -1.003795903 -0.82082717773 0 0 
-0.89165458737 0 0 -0.52225317832 -0.76299671803 0 0 -0.67535600973 0 
0 -0.033935985803 0 0 -0.54566054856 0 -0.72091368414 0 -0.5140476853 
0 -0.52542204143 0 0 -0.50381527993 0 0 0 -0.31451145255 
0 -0.38436314182 0 0 -0.20822043686 0 0 -0.22859292142 0 
0 -0.11692737354 0 0 0 -0.19246196085 0 -0.058596978049 0 
0 0.10367970395 0 0 0.22366905064 0 0 0.11744452204 0.10485902007 
0.112488842 0 0 0.012690469119 0 0.13866610528 0 0.46147156385 0 
0 0 0 0 0 0 0 0 0 
0 0 0 0 0 0 0 0 0 
0 0 0 0 0 0 0 0 0 
0 0 0 0 0 0 0 0 0 
0 0 0 0 0 0 0 0 0 
0 0 0 0 0 0 0 0 0 
0 0 0 0 0 0 0 0 0 
0 0 0 0 0 0 0 0 0 
0 0 0 0 0 0 0 0 0 
0 -0.89660565246 0 -0.47914467544 0 -0.56857315722 0 -0.65231543996 0 
-0.8697917542 0 -0.46149390824 -1.4323172444 0 -1.2140723161 0 0 -0.30845487393 
-0.81545691618 0 -0.82012024835 0 0 -0.3496581095 0 0 -0.67419059119 
0 0 0 -0.30981309849 -0.74224715805 0 0 0 0 
-0.3914673491 0 -0.55447957313 -0.33751259654 0 -0.45359620838 0 -0.44400148256 0 
0 -0.47973606119 0 -0.40656915014 0 -0.45339318352 0 -0.36040628285 0 
0 -0.25691476471 0 0 -0.24311926282 -0.13851148286 0 0 0 
-0.033206087067 0 0 0.07098057853 0 0 0.053241352396 0.015303294927 0 
0 -0.059352826829 0 0 0.11166906716 0 0 0.29966059021 0.21143855855 
0 0.29112070159 -0.39254340896 0 -0.19747164386 0 0 -0.58451506617 0 
-0.090563619368 0 0 0 0 0 0 0 0 
0 0 -0.048334839786 -0.60848565069 -0.57963663318 0 0 0 0 
0 0 0 0 0 0 0 0 0 
0 0 0 0 0 0 0 0 0 
0 0 0 0 0 0 0 0 0 
0 0 0 0 0 0 0 0 0 
0 0 0 0 0 0 0 0 0 
0 0 0 0 0 0 0 0 0 
0 0 -0.3153273947 -0.019117570531 0 0 -0.16783216836 0 0 
-0.39092209892 0 0 0 -0.57616365819 0 0 -0.36763598803 0 
0 0 0 -0.77320688158 -0.43403907837 0 0 0 0 
-0.038845399158 0 0 -0.30574032569 0 0 0 -0.30948833567 0 
0 -0.50578431522 0 0 -0.67526811365 0 0 -0.50412426519 -0.2824656128 
0 -0.38109437747 0 -0.45728577571 0 -0.39445944271 0 0 -0.46474575275 
0 -0.54177720085 0 -0.42950146186 0 0 -0.40480181846 0 -0.42663654816 
0 -0.33820045218 -0.33283766436 0 0 0 -0.10409763119 -0.26212258528 0 
-0.10718651765 0 -0.10074929716 0 -0.065073743924 0 -0.091173295234 0 0 
-0.16984077495 0 0 0.099535227574 0 0.10849594191 0 -0.0018976229731 0 
0 -0.054364895207 0 0 0.20061775509 0 -0.47913287632 0 0.11173138464 
-0.45470739382 -0.41107067904 -0.3030287506 -0.03781519566 0 0 0 0 0 
0 0 0 0 0 0 0 0 0 
0 0 0 0 0 0 0 0 0 
0 0 0 0 0 0 0 0 0 
0 0 0 0 0 0 0 0 0 
0 0 0 0 0 0 0 0 0 
0 0 0 0 -1.0228181929 -0.40410100804 0 0 -0.54966024807 
0 -0.29744472426 0 0 -0.37980885456 0 -0.20422226809 0 -0.4352068289 
0 -0.20580661512 0 -0.12167092846 0 -0.25675483851 -0.35077955314 0 0 
-0.10644837025 0 -0.097203629996 0 -0.29371690166 0 -0.16295536941 0 0.12316207017 
0 0.11155692859 0 -0.35351227783 0 -0.3569409485 0 0 -0.34470745692 
0 -0.38877479251 0 0 -0.35331824917 0 0 -0.39626417498 0 
-0.47587038789 0 0 0 -0.33923834378 0 0 -0.2551100722 0 
-0.2353975862 0 -0.1922235835 0 0 0 -0.18568259808 0 0 
-0.1472809521 0 -0.16354314024 -0.13015518084 0 -0.12936362213 0 -0.11522720831 0 
-0.11338822467 0 0 -0.012224941904 0 0.063384600396 0.001450943208 0 -0.09694861382 
0 -0.19717809079 -0.10425490056 0 0 0 -0.18722083269 -0.24555903158 -0.43007622081 
-0.48536049566 -0.13782742264 -0.24516103801 -0.066881050541 -0.22615397657 -0.18826802931 -0.13469813944 -0.13776609763 0.011134241211 
0.085020665958 0.059024849188 0 0 0 0 0 0 0 
0 0 0 0 0 0 0 0 0 
0 0 0 0 0 0 0 0 0 
0 0 0 0 0 0 0 0 0 
0 0 0 0 0 0 0 0 0 
0 0 0 0 0 0 0 0 0 
0 0 0 0 0 0 0 0 0 
0 0 -0.67936492295 -0.23205471971 0 -0.37639045972 0 -0.13680527938 0 
-0.14998362243 0 -0.029426512677 0 0 -0.10296583555 0 0 0.019336499822 
0.012208294024 0 0 0 -0.088717922062 0 -0.098522156629 0 -0.19195531611 
0 0 -0.40921183557 0 0 -0.149342465 0 0.092355740843 0 
0 0 0.00068261650516 0 0 -0.20506453076 -0.42314236641 0 0 
0 0 -0.26061606911 0 -0.28855608614 0 0 -0.25457521205 0 
-0.26285178563 0 0 -0.29493859706 0 0 -0.22913801853 0 -0.14505192546 
0 -0.038793586954 0 0 -0.050452415325 0 -0.032997325628 -0.18213535238 0 
-0.12951355385 0 -0.14262993209 0 0.0085029047829 0 -0.062903935778 0 0 
0.005354162177 0 0.018626597814 0 0 -0.10486918818 -0.75757533357 -0.12606603129 -0.42696642909 
-0.025157249507 -0.18516166548 -0.82382351236 -0.18700296569 -0.0063504178842 -0.37650576236 -0.37904051959 -0.15526264488 -0.084247694429 
-0.3899207978 0.071463910931 0.039544566686 -0.27452975312 -0.33123074332 0.019200659453 0 0 0 
0 0 0 0 0 0 0 0 0 
0 0 0 0 0 0 0 0 0 
0 0 0 0 0 0 0 0 0 
0 0 0 0 0 0 0 0 0 
0 0 0 0 0 0 0 0 0 
0 0 0 0 0 0 0 0 0 
0 0 0 0 0 0 0 0.18535688157 0 
0.058360659647 0 0 -0.27987092457 0 0 -0.052681082499 0 -0.11866052661 
0 0.063440608595 0 0 -0.002209935872 0 -0.087309485822 0 -0.0067079728859 
0 0 0.039947525219 0 -0.08187240405 0 -0.074147998317 -0.35515398916 0 
0 0 0 0 -0.28382104626 -0.036608097857 0 0.098519529823 0 
0.0052159795724 0 0 0 -0.3423984535 0 -0.39708602454 0 0 
0 -0.23568322164 -0.15611575979 0 0 -0.15363292569 0 -0.20442239231 -0.11698202892 
0 0 -0.17687211427 0 -0.083300941747 0 0.077319007683 0 0.076635035877 
0 0.1405213015 0 0.02712689742 -0.072605283585 0 0 -0.065939308256 0 
-0.047416328116 0 -0.10913482703 -0.094913324772 0 -0.0089180759655 0 -0.045958240646 -0.087864469263 
-0.59183591301 -0.13866244643 -0.79287958448 -0.16133534662 -0.19298059869 -0.1869347487 -0.14731986798 -0.025688739934 -0.25231353916 
-0.10658514263 -0.079994136758 0.066486317213 -0.15846785905 -0.10880120323 -0.47616831098 -0.27653718837 -0.071306978476 -0.18550123677 
-0.20921711822 -0.057560722985 -0.087172072731 -0.15381020524 -0.035376383021 -0.075207718629 0 0 0 
0 0 0 0 0 0 0 0 0 
0 0 0 0 0 0 0 0 0 
0 0 0 0 0 0 0 0 0 
0 0 0 0 0 0 0 0 0 
0 0 0 0 0 0 0 0 0 
0 0 0 0 0 0 0 0 0 
0 0 0 0 0 0 0 0.056305679974 0.13956566604 
0 0 -0.059750290559 -0.16091239941 0 0.034215800698 0 0 0 
-0.086008531272 0 -0.12032772635 0 0 0.042741066202 0 0.0058142093316 0 
-0.12306601847 0 -0.19097173076 0 0 0 0 -0.34749635226 0 
0 0 -0.26738406387 0 -0.11899313559 0 0.059786608813 0 -0.046355111409 
0 0 -0.30348227767 0 0 -0.10768529867 0 0 0 
-0.10287605076 0 -0.00794781607 0 -0.076474163451 0 0 -0.11228023776 0 
0 -0.069308055892 -0.012618279868 0 0.089886053368 0 0 0.14287921636 0 
-0.04845328243 -0.065555622709 0 -0.087998458652 0 -0.13134527334 0 -0.028241454901 -0.0060142688823 
0 -0.27237754413 -0.11869894395 -0.43179059084 -0.37181876435 -0.16108515365 -0.18968931343 -0.15539778668 -0.10669460589 
-0.192268532 -0.060801375326 -0.037176514175 -0.19511609929 -0.23795818069 -0.26328782771 -0.12334847214 -0.21361270559 -0.11760191797 
-0.048505175817 -0.045561809172 -0.021697035805 -0.078619570922 0 0 0 0 0 
0 0 0 0 0 0 0 0 0 
0 0 0 0 0 0 0 0 0 
0 0 0 0 0 0 0 0 0 
0 0 0 0 0 0 0 0 0 
0 0 0 0 0 0 0 0 0 
0 0 0 0 0 0 0 0 0 
0 0 0 0 0 0 0.063835356566 0 0 
-0.18868821378 0 -0.10681814544 0 -0.10569700415 0 -0.052618641658 0 0 
0.012943739799 0 -0.052616126588 -0.10613312491 0 0 0 -0.17750950346 0 
-0.056793206907 0 -0.0089572940761 0 -0.16529472446 0 0 0 -0.20846906841 
0 -0.25240577418 0 -0.3335625757 0 -0.49632628422 0 0 -0.08711327652 
0 0 -0.03456271641 0 -0.25656253348 0 0 -0.37091442019 0 
-0.19258373317 0 0 0 -0.12454599079 0 0.097440010126 0 0 
0.070952280408 0 -0.056593336778 0 -0.05431432466 0 -0.040944737541 0 0.0006808169245 
0 0.12845598652 0 0.14001239467 0 0.046517593317 0 -0.081985348813 -0.064480216035 
0 0 -0.15337029372 0 0 -0.18269954483 -0.067471141782 -0.20640438377 -1.1051091245 
-0.058310293816 -0.095050374641 -0.22595353366 -0.26931744534 -0.15153266481 -0.26591403642 -0.18545387948 -0.088928549071 -0.14829153134 
-0.16561584454 -0.11764319406 -0.1673799005 -0.26822492927 -0.28740271414 -0.28805139537 -0.050423694654 -0.13030878208 -0.044282428607 
-0.12504617957 0.00067540498755 -0.026976508454 0.17571380805 0.083293046004 -0.27960087106 0 0 0 
0 0 0 0 0 0 0 0 0 
0 0 0 0 0 0 0 0 0 
0 0 0 0 0 0 0 0 0 
0 0 0 0 0 0 0 0 0 
0 0 0 0 0 0 0 0 0 
0 0 0 0 0 0 0 0 0 
0 0 0 0 0 0 0 0 0 
0 0 0 0 0.28268304485 0 -0.14519203211 -0.030365244911 0 
-0.095357098377 0 -0.036996907608 0 -0.011036020348 -0.034941344756 0 0 -0.028170327781 
0 0 -0.067187232141 0 -0.030144088462 0 -0.13388051291 0 -0.26985246791 
0 0 -0.14966109118 0 -0.32827889886 0 0 0 -0.51958237858 
0 -0.40533146177 0 0 -0.058442393761 0 0 -0.21013382672 0 
-0.31658269461 0 -0.17924271117 0 -0.076058457461 0 0 0.0020140474606 0 
0 0.10385653576 0 0.084335880962 0 0 -0.056843844642 -0.049047470662 0 
0.0054956204457 0 0 0.10226156015 0.12671629776 0 0 0 -0.034892525068 
-0.07353418521 -0.036822526881 0 -0.024663832665 -0.85826165009 0 0.015182014173 -0.040621914471 -1.1394279735 
-0.11145564358 -0.32989093636 -0.064750173785 -0.17448193911 -0.47037598378 -0.073669621596 -0.30819640874 -0.11719747007 -0.24984212229 
-0.24414174038 -0.14083807954 -0.21315702659 -0.18948842712 -0.02793213436 -0.18117956354 -0.22563048971 -0.21913794307 -0.21959455012 
0.092291158174 -0.00063793366419 -0.23699149251 -0.34109964923 -0.14861326116 -0.13851838299 0.029695419639 0.054510023489 -0.024196867513 
-0.092054179939 0.098112005305 0 0 0 0 0 0 0 
0 0 0 0 0 0 0 0 0 
0 0 0 0 0 0 0 0 0 
0 0 0 0 0 0 0 0 0 
0 0 0 0 0 0 0 0 0 
0 0 0 0 0 0 0 0 0 
0 0 0 0 0 0 0 0 0 
0 0 0 0 0 0 0 0 0 
0 -0.36708947431 0 -0.53975933745 0 -0.3567829558 0 -0.14071264617 -0.02804909796 
0 -0.035441939128 0 -0.021887105833 0 0 -0.072820329569 0 -0.0458119313 
0 0 -0.10813024019 0 -0.20670539748 0 -0.045967220674 0 0 
-0.05937114404 0 -0.11208322597 0 0 0 -0.21583889956 0 -0.29714170136 
-0.37995080136 0 0 -0.21905603598 0 0 -0.17406860477 0 -0.064355077753 
0 -0.11097015329 0 0 -0.29290583842 0 -0.27709638025 0 -0.13344620232 
0 -0.12816058986 0 -0.089587036759 0 -0.10176710401 -0.042879817574 0 -0.014600575327 
0.037237619433 0 0 -0.001857109993 0 -0.0022409496043 0.1117347843 0 0.17991342556 
0.16626357484 0 0 0.02870391767 -0.045483639428 0 0.0072415687167 -0.05617007735 -0.38901996978 
0.0092841950003 -0.14928525934 -0.052495440456 -0.2161128328 -0.063031946314 -0.06876597458 -0.15665691375 -0.047838092419 -0.051087588363 
-0.0099508345536 -0.12495500857 -0.093612406509 -0.12555723556 -0.16112919717 -0.13980685542 -0.13894865866 -0.20880248222 -0.1923901552 
-0.10307679666 -0.18741423866 0.070821654795 0.025660510397 -0.32019362388 -0.23648036241 -0.11577857678 -0.085712010539 -0.037708327498 
-0.13037328432 -0.21578411336 -0.18091261899 -0.17597970983 0 0 0 0 0 
0 0 0 0 0 0 0 0 0 
0 0 0 0 0 0 0 0 0 
0 0 0 0 0 0 0 0 0 
0 0 0 0 0 0 0 0 0 
0 0 0 0 0 0 0 0 0 
0 0 0 0 0 0 0 0 0 
0 0 0 0 0 0 0 0 0 
0 0 0 0 -0.28893022536 -0.035673814438 0 0 -0.057953102747 
0 0.0067202348218 0 -0.00066173625408 -0.0020210847969 0 -0.1009831194 0 0 
-0.086446938323 0 -0.092959737391 0 -0.15145149435 0 -0.098678891613 0 0 
-0.061311777219 0 -0.2002455197 0 0 -0.16071556274 0 -0.13546976785 0 
0 0.025538471058 0 0 -0.053038280531 0 0 -0.056101526551 0 
-0.26873829574 0 -0.30635215286 0 -0.14205136169 -0.080745996442 0 0 -0.14578741938 
0 -0.11234002319 0 -0.10671319008 0 0 -0.062636419648 -0.027080426109 0 
-0.0084315714241 0 0.13043450574 0 0.18909692805 0 0 0.12773333922 0 
-0.62126308167 -0.064058555579 -0.064543921357 -0.35650900557 -0.022016269119 -0.11887156058 -0.16430325254 -0.1552311066 -0.053855013299 
-0.17789980085 -0.064105930923 -0.18327680919 -0.017613099032 -0.18564925216 0.070149650371 -0.18072271889 -0.067357813543 -0.11958032179 
-0.13416233545 -0.10927499845 -0.10701478802 -0.1995094454 -0.068040694026 -0.24585874768 -0.028993497028 -0.20034364023 -0.13370780356 
-0.18385901762 0.0065548726953 -0.24216089182 -0.19304570086 -0.087178746804 -0.055671880331 -0.17449861914 -0.20505991261 -0.19130018134 
0 0 0 0 0 0 0 0 0 
0 0 0 0 0 0 0 0 0 
0 0 0 0 0 0 0 0 0 
0 0 0 0 0 0 0 0 0 
0 0 0 0 0 0 0 0 0 
0 0 0 0 0 0 0 0 0 
0 0 0 0 0 0 0 0 0 
0 0 0 0 0 0 0 0 0 
-0.6108473413 0.052658591401 0 -0.14056525187 0 -0.14140125017 0 0.013159382068 0 
-0.03741895381 -0.084401345412 0 -0.098398994047 0 -0.095534275333 0 -0.12319553334 -0.22953611165 
0 -0.066928642629 0 0 -0.090010978012 -0.08765355935 0 -0.090586276143 0 
-0.054791429044 0 0 -0.0042460394993 0 0.15629551377 0 0.0032401273077 0 
0 -0.11057144416 0 -0.27322550818 0 0 -0.27140235318 0 0 
0 -0.1181133527 0 -0.10773838927 0 -0.18100427008 0 0 -0.059647244053 
0 -0.024079198038 0 0.088896119913 0 0.1269109837 0 0.27982414233 -0.73597083385 
0.22283603579 0.11426180897 -0.30848844682 -0.071052705128 -0.30207282333 -0.03362864621 -0.07247243679 -0.096942140953 -0.25541028539 
-0.17051560789 -0.085479518694 -0.11791156563 -0.034458399761 -0.16694915045 -0.0011605525809 -0.028115918101 -0.15552855625 -0.095946722708 
-0.16961267949 -0.12476064126 -0.1262878732 -0.062654754528 -0.1114254424 -0.11119950303 -0.11956817741 -0.051671090946 -0.18566061813 
-0.01428112164 -0.043195647586 -0.1872302833 -0.12942087783 -0.16889929642 -0.13419884236 -0.13260642228 -0.2917237337 -0.088343751578 
-0.12089173225 -0.20290131258 -0.14934385776 -0.1736081655 -0.070368899735 0 0 0 0 
0 0 0 0 0 0 0 0 0 
0 0 0 0 0 0 0 0 0 
0 0 0 0 0 0 0 0 0 
0 0 0 0 0 0 0 0 0 
0 0 0 0 0 0 0 0 0 
0 0 0 0 0 0 0 0 0 
0 0 0 0 0 0 0 0 0 
0 0 0 0 0 0 0.011980111529 0 0 
0.077683555059 0 -0.050125600298 -0.030506829408 0 -0.071215484836 0 -0.1256097024 -0.073831195721 
0 -0.15699700147 0 0 -0.22111877746 -0.12810870772 0 0 -0.037826896598 
0 -0.099267013857 0 0 -0.052095369666 0 -0.023215799264 0 0.081560531259 
0 -0.10803523371 0 0.1590516578 0 0.026273211171 0 0 -0.20054806159 
0 -0.27562475256 0 -0.35769472499 0 -0.22104283603 0 -0.15116137631 0 
-0.21081585058 -0.16369224268 0 -0.13814194327 0 0 -0.21451641486 0 -0.1439692529 
0 -0.13867266954 0 -0.12931778787 0 0.1209651602 -0.70813417627 0.15740404673 -0.91919908543 
0.33076396414 -0.52705175224 -0.44429967353 0.24190092198 -0.013185169957 -0.51235141928 0.026954455918 0.14341808658 -0.15127083298 
-0.26872776063 -0.061440363339 -0.077911135799 -0.15477419092 -0.13283654923 0.0021574081548 0.006854495724 -0.13449930034 -0.0025232671077 
0.025834393475 -0.17804745416 -0.017809398405 -0.030197347774 -0.1586987732 -0.032225853467 -0.13237547486 -0.12167553243 -0.053708483586 
-0.058881089662 -0.17076428215 -0.052288160742 -0.15344444209 -0.065611569331 -0.096124581128 -0.08257994091 -0.068964775435 -0.17750478667 
-0.10420058961 -0.057331507623 -0.099853305667 -0.064024974956 -0.20481066228 -0.18472745059 -0.15182032952 -0.15113589927 -0.17433861415 
-0.1428296474 -0.18908119099 -0.15073634723 0 0 0 0 0 0 
0 0 0 0 0 0 0 0 0 
0 0 0 0 0 0 0 0 0 
0 0 0 0 0 0 0 0 0 
0 0 0 0 0 0 0 0 0 
0 0 0 0 0 0 0 0 0 
0 0 0 0 0 0 0 0 0 
0 0 0 0 0 0 0.69496628471 -0.050297942823 0 
0.050741137504 0.19876520974 0.084346402861 0 -0.18792684213 0 -0.00012789291163 0 -0.014251548501 
0 -0.013715507346 0 -0.18673285373 -0.18234753562 0 0 -0.093496569511 0 
-0.021040449817 0 -0.11881627975 0 -0.20395307472 0 -0.096893575595 0 0 
0.041372570511 0 -0.11955674941 0 0 -0.1866730397 -0.073759026408 0 0 
-0.10280190116 0 -0.15112638543 -0.13406604626 0 -0.13411342269 0 -0.078647415132 0 
-0.12826626684 0 0 -0.10455998115 -0.11420512722 0 -0.15307746545 -0.21507632815 0 
-0.16731033153 0 -0.065246182145 -0.15054904026 -0.0922670063 0 0 -0.11023139769 -0.48429666282 
0.020346928696 0.21540468353 -0.25769429269 0.25874083175 -0.069834932099 0.24481163387 -0.18269758597 -0.15912061831 0.048289226816 
0.032528898533 -0.030172229664 -0.035018550426 -0.069476505377 0.014429816928 -0.077778131694 0.015397193875 -0.07699807654 -0.024813158042 
-0.14690353014 -0.14597253901 0.033180261234 -0.073630296373 0.007742069326 -0.081700308764 -0.028342867587 -0.015685099326 -0.12556949849 
-0.0054767515282 -0.15786059578 -0.093286863962 -0.069872255547 -0.092894888719 -0.16029677541 -0.15939891358 -0.093952961671 -0.046668331833 
-0.10784024928 -0.25582115661 -0.32031623179 -0.16315803029 -0.11716970842 -0.10901839149 -0.17033466522 0 0 
0 0 0 0 0 0 0 0 0 