# vtk DataFile Version 4.2
vtk output
ASCII
DATASET POLYDATA
POINTS 14998 double
-73.85046238 -49.70235774 21.394000819 -74.005814779 -50.615348184 20.840850945 -73.60175401 -49.755541021 20.338371221 
-73.566278217 -48.823840713 20.662185387 -73.26024233 -46.942622337 20.517802903 -73.172816287 -45.80891108 20.78866654 
-73.342892489 -48.092556066 19.946232379 -73.576309069 -47.773329792 21.011452217 -72.950770248 -46.170253065 19.83026738 
-72.953222406 -45.064180256 20.01496861 -73.804563015 -50.413923409 19.663848386 -74.353959484 -51.322682726 20.115122916 
-73.429491561 -49.095309345 19.486337662 -73.113342289 -47.175121298 19.54985225 -72.844998354 -45.582403826 19.033227466 
-72.861409524 -44.446785702 19.145495492 -74.242161026 -51.100330916 18.990106829 -73.651535089 -49.899768661 18.75920734 
-73.245826893 -47.919535994 18.832574599 -73.004624791 -46.590520024 18.731571095 -73.076419529 -43.316598198 19.141728502 
-73.429306292 -48.805358594 18.42746506 -72.839104526 -45.1403795 18.215034508 -72.775244608 -44.033514048 18.175825123 
-73.925592217 -50.487326024 17.955331859 -73.200363966 -47.255868237 17.988129213 -73.020446706 -46.074413336 17.774998758 
-72.73378672 -42.99203023 17.91878207 -74.416801192 -51.378140938 18.02005458 -73.640693833 -49.417871825 17.656482927 
-73.421790543 -48.156035395 17.508810086 -73.036680462 -42.351731823 18.597744825 -72.733604927 -41.74994665 17.699800606 
-72.880812307 -44.827902321 17.292246514 -74.247484741 -51.099219374 17.019551225 -73.259853972 -46.872030394 17.034241277 
-72.744489543 -43.734086079 17.079840668 -72.612872857 -42.596124244 16.900194498 -72.683375398 -40.58861648 17.199827213 
-74.86593848 -52.041203545 17.36316087 -73.897170142 -50.072985837 16.842944449 -73.659599952 -48.850720883 16.707799581 
-73.096349824 -45.708486166 16.742225267 -72.508340035 -41.521648186 16.619911832 -73.486580763 -47.687645105 16.445018262 
-72.947043583 -44.501317147 16.299787556 -72.68160916 -39.518318132 16.620562738 -74.724108881 -51.767806538 16.291382407 
-73.331121295 -46.486471142 16.037455737 -72.775159704 -43.315275552 16.064340206 -72.428946792 -40.492643841 16.240572712 
-74.237125328 -50.766856608 15.976781002 -73.923280153 -49.53246532 15.925984971 -73.725439092 -48.380767854 15.67852697 
-73.17097792 -45.319247583 15.710752132 -72.624389269 -42.209017121 15.795209898 -73.558856187 -47.242160834 15.364596121 
-73.000674463 -44.045873114 15.322773266 -72.488249201 -41.11958995 15.477839877 -72.382690016 -39.907647201 15.412843038 
-72.501509201 -38.879812795 15.457143172 -74.673452433 -51.487610379 15.226279156 -74.234295269 -50.141040794 15.161780757 
-73.400983968 -46.069383523 15.011447339 -72.841535643 -42.893203016 15.008606837 -73.993491911 -49.032087377 14.91077625 
-73.222553383 -44.830809924 14.725293995 -72.677929126 -41.730483123 14.717154246 -74.529271586 -50.774729386 14.487098354 
-73.793511863 -47.929275787 14.610012015 -72.505746481 -40.5122487 14.499114373 -72.420875909 -39.328570565 14.403233976 
-72.815149432 -37.918155216 15.131910519 -75.192203857 -52.299154326 14.562881206 -74.303310008 -49.719962784 14.163157662 
-73.62760973 -46.793384632 14.304067876 -73.449423561 -45.565133595 14.028992143 -73.070965298 -43.623620036 14.286718939 
-72.901980006 -42.426338388 13.985090815 -72.610391493 -38.274233089 14.183827305 -74.771812655 -51.556774912 13.974437823 
-74.058260318 -48.662090908 13.860685589 -72.728145269 -41.224093774 13.714699751 -73.868068538 -47.541779854 13.563101945 
-73.296469322 -44.40605375 13.66063893 -72.570225078 -40.011718312 13.495984634 -75.058281783 -52.358137851 13.355710344 
-74.544693775 -50.495756256 13.463364515 -73.68649249 -46.333158038 13.31290769 -73.135396871 -43.183083336 13.27000785 
-72.578489699 -38.878975284 13.276094849 -74.325078087 -49.422760619 13.116817 -73.530580059 -45.184752155 12.970375792 
-72.967746992 -41.981269684 12.953107824 -72.791076287 -40.76183301 12.70529552 -72.929000887 -37.771802605 13.085482342 
-74.727452855 -51.366095616 12.879617289 -74.126859287 -48.320556531 12.82677203 -73.94868113 -47.138637984 12.570833876 
-73.369769972 -44.008076471 12.634368188 -72.69839776 -39.609606301 12.416010558 -75.472987261 -53.144267879 12.702901321 
-74.543785002 -50.245398429 12.442477261 -73.781070992 -45.986691268 12.256859254 -73.209769142 -42.792458817 12.245217815 
-72.8589013 -38.481622896 12.213777563 -74.978002658 -52.191439358 12.240714634 -74.380419244 -49.120611124 12.095849254 
-73.615944 -44.831872756 11.938650313 -73.033007597 -41.54325638 11.936507306 -74.750251152 -51.087768352 11.820382205 
-74.243257462 -47.97012747 11.857552992 -73.454691313 -43.661386963 11.601744756 -72.893403601 -40.381864827 11.633021562 
-75.753681947 -53.512999918 11.749061172 -75.259582468 -52.772317182 11.434545852 -74.607634614 -49.942491532 11.4151266 
-74.083630889 -46.803399663 11.567543171 -73.281542516 -42.38815159 11.246801976 -72.911466479 -39.247827472 11.337720117 
-74.989187791 -51.820409754 11.091279034 -74.523652568 -48.781036102 11.098990099 -73.9064467 -45.643195398 11.208534889 
-73.132935324 -41.185879228 10.886711273 -73.215380205 -38.108753766 11.209703613 -74.841636579 -50.751450372 10.746410859 
-74.459216904 -47.640307574 10.903840117 -73.728593595 -44.519496755 10.905636893 -73.535421776 -43.234014101 10.617409331 
-73.080328703 -40.038141124 10.539479208 -75.789872559 -53.483243689 10.678838727 -74.313683599 -46.486662237 10.582401259 
-73.27497293 -38.869615061 10.33908612 -75.318195487 -52.613903523 10.296105505 -74.772788408 -49.616129316 10.388164712 
-74.147803678 -45.367810142 10.153272663 -73.827939317 -44.049913628 9.9978898617 -73.411673226 -42.016888022 10.217971362 
-75.101159481 -51.553275671 9.9993112863 -74.830946786 -48.481988837 10.108174744 -74.829082269 -47.383223525 10.009524719 
-73.334784876 -40.838285162 9.8421502832 -75.042544191 -50.442814465 9.6986655394 -74.725314478 -46.274853484 9.6510278469 
-73.731255556 -42.854594129 9.6118421012 -73.448085075 -39.650316976 9.5473425778 -75.859623119 -53.414448753 9.5460448058 
-75.147809698 -49.319742783 9.3932996944 -74.222821824 -44.661592422 9.3590314717 -73.722597847 -41.662565253 9.2252024834 
-75.392824583 -52.359321105 9.2349551494 -75.269856047 -51.2397896 8.949507761 -75.327022338 -48.21289545 9.1575199404 
-74.733938816 -45.404100476 8.9957900802 -74.110603084 -43.616097662 8.9830992444 -73.752235685 -40.490697457 8.8984093715 
-75.389221663 -50.134176506 8.6860006966 -74.178425024 -42.496092053 8.6582016062 -76.357451882 -53.700179522 8.5648206012 
-75.774044053 -52.946993443 8.4333900663 -74.633676218 -44.424071953 8.4075922567 -74.228369608 -41.370522657 8.3094736958 
-75.475628466 -51.913589511 8.1606691964 -74.602290055 -43.340676548 8.0482832195 -75.461818216 -50.804203727 7.8723209968 
-75.689066275 -49.767282282 7.5746605332 -76.500583623 -53.422859529 7.5440718991 -75.863507628 -52.59084122 7.3954033045 
-75.571522664 -51.519271284 7.1045829214 -75.613759951 -50.502755736 6.7232416209 -76.535498115 -53.008573967 6.523197771 
-75.917355245 -52.209692392 6.3996785517 -75.890345647 -49.440124457 6.4745747235 -75.769281471 -51.318622325 5.9243157172 
-75.914882651 -50.273583136 5.6418502489 -76.350487994 -52.37866573 5.4655008226 -76.163932116 -51.269794093 4.9365965368 
-76.391582959 -50.123778652 4.6823647038 -76.749208123 -52.037112869 4.4201066019 -72.946016184 -28.89112253 1.1069308282 
-73.17002995 -29.881995591 0.52333394486 -72.805764008 -28.972391026 0.079312011566 -72.966185269 -28.025683663 0.11571311836 
-73.465124724 -30.725374225 -0.19096869392 -72.908633057 -29.741646813 -0.52663776872 -72.920026212 -28.585736045 -1.003168812 
-73.686203575 -31.61828085 -0.88161826224 -73.095905133 -30.513218881 -1.1769749422 -72.918583396 -29.518027266 -1.5525233792 
-74.08938266 -32.623774514 -1.3086152269 -73.23972945 -31.134210113 -1.8269593032 -73.507534845 -32.049009369 -2.0267292189 
-73.127063212 -28.990950937 -2.3440321959 -73.406013915 -28.054909527 -1.9126944187 -73.819629399 -32.960734154 -2.3415557825 
-73.104135638 -30.191976372 -2.448394909 -73.315628993 -31.235433838 -2.885473384 -74.218699756 -33.81288056 -2.6615234221 
-73.544315049 -32.229343992 -3.2118562781 -73.811428527 -33.22802838 -3.4652296538 -73.368335117 -29.432809073 -3.3069207234 
-73.757576905 -28.387259488 -3.0193862888 -74.185980849 -34.307735416 -3.7097906445 -74.777922762 -34.620329934 -2.8914598089 
-73.37723325 -30.436959055 -3.6379803388 -74.783218088 -35.30988369 -3.6706473847 -73.525677185 -31.441349504 -4.0126577264 
-73.730205678 -32.470982243 -4.3796077983 -73.819831513 -29.713308821 -4.3551749524 -74.249790661 -34.738242311 -4.7149357723 
-73.941872809 -33.534888543 -4.4490706835 -73.765788985 -30.640786867 -4.7926682133 -74.59605053 -35.750744025 -4.6119284107 
-75.257169596 -36.343043449 -4.094553296 -74.978273182 -36.737701602 -5.0110988352 -73.798357282 -31.619387224 -5.1011974376 
-74.091264792 -33.748743139 -5.3521395535 -73.966632618 -32.68560886 -5.493912377 -75.408866342 -37.691358784 -5.4991346497 
-74.491274091 -35.615800768 -5.6205705727 -74.299304471 -34.519845234 -5.8769051442 -74.339742434 -30.722988134 -5.875250565 
-74.772074148 -36.621960681 -5.9775767014 -74.15630633 -31.735085358 -6.0548490277 -75.031474638 -37.481379165 -6.4210415579 
-74.25442564 -33.403559145 -6.3736215491 -75.32769452 -38.378130271 -6.5301263748 -74.684358983 -35.981227605 -6.7867857037 
-74.506736907 -35.066713893 -6.6433229636 -74.424012153 -32.418456164 -6.7243542418 -75.627839361 -39.351598213 -6.6174611806 
-75.962797042 -38.678380077 -5.7684288581 -74.504628634 -34.130249123 -7.0898092916 -75.8373245 -40.222385283 -6.8438713359 
-74.917251548 -36.915992681 -7.2116440396 -74.739099695 -33.122105952 -7.4759238621 -76.088665296 -41.139631714 -7.2148333466 
-75.378061573 -39.016955359 -7.4856741882 -75.164469084 -37.978948726 -7.5523232171 -74.758355092 -35.028743935 -7.7404304329 
[...]
POINT_DATA 14998
SCALARS thickness_change_(mm) double
LOOKUP_TABLE default
0 0 0 0 0 0 0 0 0 
0 0 0 0 0 0 0 0 0 
0 0 0 0 0 0 0 0 0 
0 0 0 0 0 0 0 0 0 
0 0 0 0 0 0 0 0 0 
0 0 0 0 0 0 0 0 0 
0 0 0 0 0 0 0 0 0 
0 0 0 0 0 0 0 0 0 
0 0 0 0 0 0 0 0 0 
0 0 0 0 0 0 0 0 0 
0 0 0 0 0 0 0 0 0 
0 0 0 0 0 0 0 0 0 
0 0 0 0 0 0 0 0 0 
0 0 0 0 0 0 0 0 0 
0 0 0 0 0 0 0 0 0 
0 0 0 0 0 0 0 0 0 
0 0 0 0 0 0 0 0 0 
0 0 0 0 0 0 0 0 0 
0 0 0 0 0 0 0 0 0 
0 0 0 0 0 0 0 0 0 
0 0 0 0 0 0 0 0 0 
0 0 0 0 0 0 0 0 0 
0 0 0 0 0 0 0 0 0 
0 0 0 0 0 0 0 0 0 
0 0 0 0 0 0 0 0 0 
0 0 0 0 0 0 0 0 0 
0 0 0 0 0 0 0 0 0 
0 0 0 0 0 0 0 0 0 
0 0 0 0 0 0 0 0 0 
0 0 0 0 0 0 0 0 0 
0 0 0 0 0 0 0 0 0 
0 0 0 0 0 0 0 0 0 
0 0 0 0 0 0 0 0 0 
0 0 0 0 0 0 0 0 0 
0 0 0 0 0 0 0 0 0 
0 0 0 0 0 0 0 0 0 
0 0 0 0 0 0 0 0 0 
0 0 0 0 0 0 0 0 0 
0 0 0 0 0 0 0 0 0 
0 0 0 0 0 0 0 0 0 
0 0 0 0 0 0 0 0 0 
0 0 0 0 0 0 0 0 0 
0 0 0 0 0 0 0 0 0 
0 0 0 0 0 0 0 0 0 
0 0 0 0 0 0 0 0 0 
0 0 0 0 0 0 0 0 0 
0 0 0 0 0 0 0 0 0 
0 0 0 0 0 0 0 0 0 
0 0 0 0 0 0 0 0 0 
0 0 0 0 0 0 0 0 0 
0 0 0 0 0 0 0 0 0 
0 0 -0.79220518396 0 0 0 0 0 0 
0 0 0 0 0 0 0 0 0 
0 0 0 0 0 0 0 0 0 
0 0 0 0 0 0 0 0 0 
0 0 0 0 0 0 0 0 0 
0 0 0 0 0 0 0 0 0 
0 0 0 0 0 0 0 0 0 
0 0 0 0 0 0 0 0 0 
0 0 0 0 0 0 0 0 0 
0 0 0 0 0 0 0 0 0 
0 0 0 0 0 0 0 0 0 
0 0 0 0 0 0 0 0 0 
0 0 0 0 0 0 0 0 0 
0 0 0 0 0 0 0 0 0 
0 0 0 0 0 0 0 0 0 
0 0 0 0 0 0 0 0 0 
0 0 0 0 0 0 0 0 0 
0 0 0 0 0 0 0 0 0 
0 0 0 0 0 0 0.37093314667 0 0 
0 0 0 0 0 0 0 0 0 
0 0 0 1.0737966682 0 0 0 0 0 
0 0 0 0 0 0 0 0 0 
0 0 0 0 0 0 0 0 0 
0.16634950154 0 0 0 0 0 0 0 0 
0 0 0 0 0 0 0 -0.10254873696 0 
0 0 0 0 0 0 0 0 0 
0 0 0 0 0 0 0 0 0 
0 -1.4515722269 0 0 0 0 0 0.15725606073 0 
0 0 0 0 0 -0.464939392 0 0 0 
0 -0.15399134079 0 0 0 -0.43908865298 0.12636479016 0 0 
-0.36126207687 0 -0.073281566134 0 0 0 0 0 0 
0 0 0 -0.03625926781 0 -0.16891577178 0 0.15111490147 0 
0 0 0 -0.83208755458 0 0 0 -0.083846412091 0 
0 0 0 0 -0.082568999081 0 0 0 0 
0 0 0 0 0 0 -0.55659722696 0 0 
0 0 0 0 0 0 0 0 0 
0 0 0 0 0 0 0 0 0 
0 0 0 0 0 0 0 0 0 
0 0 0 0 0 0 0 0 0 
0 0 0 0 0 0 0 0 0 
0 0 0 0 0 0 0 0 0 
0 0 0 0 0 0 0 0 0 
-0.87835685167 0 0 0 0 0.29626602279 0 0 0 
0 0 -0.23973777131 0 0 -0.27057510677 0 0 0 
0.11558674642 0 0 0 0 -0.4811456256 0 0 0 
0.030559633385 0 0 0 0.30719611432 0 0 0 0 
0 0.19782680099 0 0 0 0 0 0 0 
-0.43494075887 0 0 0 0 0 0 0 0 
-0.39392605255 0 0 0 0 0 0 0 0 
0 0 0 0 0 0 -0.14865893365 0 0 
0 0 0 0 -0.21957081192 0 0 0 0 
0 0 0 0 0 0 -0.1785881497 0 0 
0 0 0 0 0 0 -0.041602690965 0 -0.15205456106 
0 0 0 0 0 -0.4645826804 0 0 -0.2489430615 
0 -0.15799949639 -0.10240362634 0 0.06261721476 0 -0.35291429182 0 -0.018789032817 
0 -0.066337169887 0 0 0.11321035846 0 0 0.079089336074 0 
-0.074976777083 -0.15576979267 0 -0.1586751618 0 -0.46283189134 0 0 -0.26699351629 
0 0 0 0 0 0 0 0 0 
0 0 0 0 0 0 0 0 0 
0 0 0 0 0 0 0 0 0 
0 0 0 0 0 0 0 0 0 
0 0 0 0 0 0 0 0 0 
0 0 0 0 0 0 0 0 0 
0 0 0 0 0 0 0 0 0 
0 0 0 0 0 0 0 0 -0.88951346088 
0 0 -0.1037049156 0 0 0 -0.31008077052 0 -0.72024667277 
0 0 0 0.16399731055 0 0 0.086618153599 0 0 
0.098418468844 0 0 -0.0126296885 0 0.082451064847 0 0 0.086918094517 
0 0 -0.024192377246 0 0.044324330919 0 0 0.068357203388 0 
0 0 0 0.058665474231 0.054111733332 0 0 0 -0.027409450979 
0 0 0 -0.0077152331203 0 0 0 0 0 
0 -0.14064013642 0 0 0 0 -0.36657292551 0 -0.15871232556 
0 0 0 0 0 -0.35661405198 0 0 0 
0 0 0 -0.15911495581 0 0 0 -0.65645705248 0 
0 0 0 0 0 0 -0.14911986561 0 0 
0.079528386131 -0.037087749293 0 0 0.11930375458 0 0.0030357641059 0.0090448915706 0 
0 -0.060456361473 0 0.084472246184 0 0.31445738905 0 0 0 
0 0 0 0 0 0 0 0 0 
0 0 0 0 0 0 0 0 0 
0 0 0 0 0 0 0 0 0 
0 0 0 0 0 0 0 0 0 
0 0 0 0 0 0 0 0 0 
0 0 0 0 0 0 0 0 0 
0 0 0 0 0 0.10080352369 0 0 0 
0 0 0 0.050519474298 0 0.03447782373 0 0 -0.047553248652 
0 0 0 0 -0.015430488172 -0.048467507029 0 0.032652846827 0 
0 0.069855408867 0 0 0 0.11079010148 0 0 0 
0 -0.19717668188 0 0 -0.079611570047 0 0 0 -0.13270140307 
0 -0.0094189111159 0 0 0 0 0 0 0 
-0.095115443365 0 0 0 0 -0.17126135838 0 0 0 
0 -0.19733325688 0 0 0 -0.30047969545 0 0 0 
-0.048245817941 -0.25610234018 0 0 0 -0.30345085785 -0.13211789324 0 0 
0 0 0 -0.07354455747 0 0 0 0 -0.29444156272 
0 0 0 -0.056940159149 -0.018506071056 0 0 -0.06200419028 -0.035870671092 
0 0 -0.05676074868 0 0.15613755271 0 0 0.19646243819 0 
0 0 0.21043109546 0 0 0 0 0 0 
0 0 0 0 0 0 0 0 0 
0 0 0 0 0 0 0 0 0 
0 0 0 0 0 0 0 0 0 
0 0 0 0 0 0 0 0 0 
0 0 0 0 0 0 0 0 0 
0 0 0 0 0 -0.30887228039 0 -0.11272788538 0 
0 -0.25036730137 0 -0.021305039662 0 0 0 0 0.035528878895 
0 0 0 0 0 0.0033374207864 0 0.034420271272 0 
0 0.10649464999 0 0 0 0.13168535715 0 0 0 
0 -0.14742048616 0 0 0.066543538227 0 0 0.065422432187 0 
0 0 0.12625299769 0 -0.05406704529 0 -0.072436481918 0 0 
-0.2180103611 0 0 0 0 -0.093968089497 0 0 0 
0 -0.06593522096 0 0 -0.16868171359 -0.087183653415 0 0 -0.10421453381 
0 0.0085611776676 0 0.049959865805 0 0.075218227838 0 -0.024514098392 0 
0 0 -0.083545602954 0 0 0 0 0 0 
0 -0.24632890167 0 0 0 0 -0.04408893389 0 0 
0 0 -0.093737980906 -0.095313255813 0 0 0 -0.019284015305 0 
0 -0.23626088865 0 0 0 0.06795877471 0 0 0.23107485001 
0 0 0 -0.047365654814 -0.0099553237187 0 0 0 0 
0 0 0 0 0 0 0 0 0 
0 0 0 0 0 0 0 0 0 
0 0 0 0 0 0 0 0 0 
0 0 0 0 0 0 0 0 0 
0 0 0 0 0 0 0 0 0 
0 0 0 0 0 0 0 -1.0031763642 0 
0 0 -0.13615741948 0 -0.15160149327 0 0 0.031185053866 0 
0 -0.031891047437 0 0 -0.054437844374 0 0 0 0.019752164614 
0 0 0 0.08873013014 0 0 0 0.068634720713 0 
0 0.091687528909 0 0 0.029904999516 0 0 -0.041709519588 0 
0 0.04462701035 0 0 0.075365513037 0 0 -0.023127657581 0 
0 -0.089399057539 0 0 0.012774408501 0 0 -0.0080102486531 0 
0 0 0.019797023837 0 0 0 -0.015468402709 0 -0.059799091424 
0 -0.030853942535 0 0.054237344251 0 0 0 0.088700463633 0 
0 0 0 0 0 0 0.07904011022 0 0 
0 0.064644510171 0 -0.047808014532 0 0 -0.12166672172 -0.16762189858 0 
0 0 -0.1189034783 -0.11207113734 0 0 -0.054171579237 -0.13812486957 0 
0 0 0 -0.28231147634 -0.009713528225 0 0 0 -0.38152429014 
0 0 -0.30927084065 -0.12272973427 0.23822155805 0.11053041828 -0.048959211345 -0.39539838454 0 
0 0 0 0 0 0 0 0 0 
0 0 0 0 0 0 0 0 0 
0 0 0 0 0 0 0 0 0 
0 0 0 0 0 0 0 0 0 
0 0 0 0 0 0 0 0 0 
0 0 0 0 0 0 -1.3612803015 0 -0.2293939562 
0 0 -0.19457934844 -0.10240588866 0 0 -0.052337350915 0 0 
0 0.019897404701 0 0.11339504217 0.033022793077 0 0 0.048367094402 0 
0 0 0.062787381551 0 0 0 0.049313451447 0 0.1037773243 
0 0 0 0.088680335887 0 0 0 0.037728802742 0 
0 0.077245140186 0 0 0.074240756527 0 0 0.14642682585 0 
0 0.10520164462 0 0 0 0.16780173231 0 0 0.047337673185 
0 0 0.067588921501 0 0 0.018105834392 0 0 0 
-0.032437617103 0 0 0 -0.13445904365 0 0 0 0 
0 0 0 0 0 0 0.07559374978 0 0 
-0.043906492226 0 0 -0.099308368574 0 -0.15525096743 0 -0.14978614718 0 
0 -0.096978616906 0 0.0026909194545 -0.082307300044 0 -0.10790516667 -0.16267939815 0 
0 0 -0.079962115702 -0.21354505149 0 -0.16699610006 -0.22068601003 -0.10222828697 0.0097585362721 
0.098201252281 0.075718209241 -0.19028983822 0.069041875655 -0.0065104764799 0.035526160487 -0.089430953412 0 0 
0 0 0 0 0 0 0 0 0 
0 0 0 0 0 0 0 0 0 
0 0 0 0 0 0 0 0 0 
0 0 0 0 0 0 0 0 0 
0 0 0 0 0 0 0 0 0 
0 0 0 0 -0.50308075838 0 0 -0.1391297885 0 
0 0 0 0 -0.14175447759 -0.03263685023 0 -0.0078756714513 0 
0 0.11156488472 0 0 0 0.13253579598 0.15869661113 0 0.0530529321 
0 0 0 0.14321089302 0 0 0.16655050584 0 0.25350766824 
0 0.15524398626 0 0.19187760575 0 0 0.38435002835 0 0 
0.26461108196 0 0 0.23093379969 0 0 0.23500829367 0 0 
0.15314785284 0 0 0.060798346091 0 0 0.09145308468 0 0 
0 0.076632197707 0 0 0 0 -0.12579477033 0 0 
0 -0.18426454396 0 -0.065568485705 0 -0.015266787392 0 -0.12650179042 -0.070811161692 
0 0 -0.18017739088 -0.14150307325 0 0 -0.081867265375 0 -0.087738399892 
0 -0.069893557758 -0.055416130052 0 0 0 -0.12426043988 -0.19723551964 0 
0 -0.13859306194 0 -0.15739505811 -0.1365706892 -0.42225509195 0.04271816545 -0.62025008741 -0.040085971864 
-0.053825583552 -0.053516783404 -0.18657399942 -0.21828005712 -0.25549739779 -0.18156369552 -0.010942655552 -0.024383349699 0 
0 0 0 0 0 0 0 0 0 
0 0 0 0 0 0 0 0 0 
0 0 0 0 0 0 0 0 0 
0 0 0 0 0 0 0 0 0 
0 0 0 0 0 0 0 0 0 
0 0 0 0 0 0 0 -1.2875775202 0 
0 0.01094635953 0 -0.19972801551 0 -0.21539215668 0 -0.16232781377 0 
-0.071699032107 0 0 -0.0092147754313 0 0 0.13450558891 0 0.2383831852 
0 0 0.20044646816 0 0.19144978905 0 0.14891015793 0 0 
0.091460851631 0 0 0.052993098288 0 0 0.20224099563 0 0 
0 0 0.22601057508 0 0 0 0.40808721312 0 0.35189016243 
0 0 0.28591560143 0 0 0 0 0.15142426161 0 
0 0.09985628215 0 0.060949192181 0 0 0 -0.0042007247678 0 
-0.10541582225 0 0 -0.11752728165 0 -0.11992209207 0 -0.1509856588 0 
-0.086236571567 0 -0.17179206412 -0.12332249935 0 -0.051437342104 0 -0.08972995758 0 
0 -0.095302501466 -0.08835728866 0 0 -0.14636604854 0.4195119148 -0.12795971056 0.082640989867 
-0.57235319557 -0.10079934096 0.015623735672 -0.068094679514 0.016261769909 -0.17975672693 -0.37112216271 -0.13767495651 -0.14801275259 
-0.043194516177 -0.095196644035 -0.048549361049 0.036082248512 0.0057994309369 -0.05608023722 0 0 0 
0 0 0 0 0 0 0 0 0 
0 0 0 0 0 0 0 0 0 
0 0 0 0 0 0 0 0 0 
0 0 0 0 0 0 0 0 0 
0 0 0 0 0 0 0 0 0 
0 0 0 0 0 0 0 0 0 
0 0 0 -0.33640807965 -0.04645538415 0 0 -0.12393232295 -0.14686704855 
0 0 -0.11595772262 0 0.0050870930303 0 0 0.0016449384393 0 
0 0.082481148581 0 0 0.22623468558 0 0 0.1732541453 0 
0 0.14106768598 0 0.10839846546 0 0 0.13528815189 0 0 
0.19911380361 0 0.12637234911 0.2509312427 0 0 0.4180328902 0 0 
0.3426022928 0 0 0 0.28827444317 0 0 0 0.26822812698 
0 0 0.10569298393 0 0 -0.014306250769 0 0.0063892621152 0 
-0.025411496565 -0.037094131237 0 -0.0751292329 0 -0.083848962522 0 -0.063364964414 0 
-0.098569718889 0 -0.22253152149 0 0 -0.1898290699 -0.13820180135 0 0 
-0.23572112494 0 -0.16296145989 0 -0.13265224788 0.4380737102 0.80675565338 -0.15824412825 -0.14239090509 
-0.20809860648 -0.080319938195 -0.14826523033 -0.25725210939 -0.043890221297 -0.0067104519323 -0.16955668188 -0.027993947222 -0.085138265556 
-0.2773720488 -0.0013797873785 -0.063432273003 -0.16658132306 0.0036480837134 0.039556589398 0.069301847043 0 0 
0 0 0 0 0 0 0 0 0 
0 0 0 0 0 0 0 0 0 
0 0 0 0 0 0 0 0 0 
0 0 0 0 0 0 0 0 0 
0 0 0 0 0 0 0 0 0 
0 0 0 0 0 0 0 0 0 
0 0 -0.30741518869 0 0 -0.33454875238 0 0 0 
-0.077160397536 0 -0.10852192181 0 0 -0.13682694543 -0.11475562156 0 0 
0 -0.088386416777 0 0 0.0047853459309 0.15694141569 0 0 0.14412093742 
0 0.13377203624 0 0 0.17366965589 0 0.17024147759 0 0 
0 0.2846750693 0.19929617701 0 0 0.11553945958 0 0 0 
0 0.17577190456 0 0 0.28980876793 0 0.38318787322 0 0 
0.25771357776 0.22895147249 0 0 0.33051789135 0 0 0.23528428073 0 
0.038147664767 0 0 0.020497833891 0 0 0.033594224952 0 0 
0 -0.0066308198376 0 0 -0.046648503774 0.0054092712519 0 0 -0.010986470155 
0 -0.024466162798 0 -0.083360638646 0 -0.17525437388 0 0 -0.22878498943 
-0.26654877675 0 -0.27614612431 0 -0.17777529356 0.44329359468 -0.18565918097 0.13841708505 -0.23622301558 
0.097438155004 -0.19395265186 -0.00055408388695 -0.12291225727 -0.11829983307 -0.18520001083 -0.08784617653 -0.18562689005 -0.037674161458 
-0.072714895114 0.052548498483 0.028496477548 0.046866479852 -0.16574790246 -0.11330691592 -0.09039065447 -0.067330353475 0.017843786151 
0.024143225173 0 0 0 0 0 0 0 0 
0 0 0 0 0 0 0 0 0 
0 0 0 0 0 0 0 0 0 
0 0 0 0 0 0 0 0 0 
0 0 0 0 0 0 0 0 0 
0 0 0 0 0 0 0 0 0 
0 0 0 0 0 -1.168139299 0 0 0 
-0.56286187817 0 0 -0.20387874463 0 -0.18438149057 0 -0.16734612126 0 
0 0 -0.12016365962 0 0 -0.06678842943 0 0 -0.02861872413 
0 0.059050097862 0 0 0.06981146831 0.18136833081 0 0.38320122488 0 
0 0 0.072331022886 0 0.018216805677 0 0 0.070853338608 0 
0 0.13772738658 0 0 0 0.24042433141 0 0 0.077641788857 
0 0.15313335179 0 0.25591176825 0 0 0 0.083267638437 0 
0 -0.028923724546 0 -0.084484874255 0 0 -0.099311894211 0 0 
-0.035287386078 0 0 -0.043696275371 0 -0.080674782997 -0.071419344 0 -0.12625373061 
0 0 -0.16806992581 0 0 -0.12784073457 0.40215349245 0.1598377097 -0.16398344844 
-0.2141782524 0.076398685611 0.049797165661 -0.17276168064 -0.12489135676 -0.052128230547 -0.058646695586 -0.12162694659 0.0044547722615 
-0.072434739573 -0.12142483666 -0.11488657062 -0.10025196625 -0.086352354934 -0.13462772142 -0.17878217709 0.18390350638 0.23866423577 
-0.027085797762 -0.15672809587 -0.1681876863 -0.07105408617 0.023688606802 0.0086694840801 0 0 0 
0 0 0 0 0 0 0 0 0 
0 0 0 0 0 0 0 0 0 
0 0 0 0 0 0 0 0 0 
0 0 0 0 0 0 0 0 0 
0 0 0 0 0 0 0 0 0 
0 0 0 0 0 0 0 0 0 
0 0 0 0 0 0 -0.1280432063 -0.25627169049 0 
-0.20717575715 0 -0.30309073653 0 -0.33107768379 0 -0.27563847386 0 -0.1737891217 
0 -0.16234939787 0 -0.088038507651 -0.059739424851 0 0 0.038439770397 0 
0 0 0.0044970352675 0 0.20358901742 0 0 0.19559209844 0 
0.22883915638 0 0 0 -0.018676755994 0 0 0.0013592240095 0 
0 0.046549221744 0 0.23516760954 0 0 0.1085030028 0 0 
0 0 0.086392091305 0 0.1649183069 0 0 -0.054812055331 0 
-0.082793439567 0 -0.11935347679 0 0 -0.1111551972 -0.1059598963 0 0 
-0.062380087389 0 0 -0.043778630001 0 0 -0.073588490022 -0.09824824497 0 
-0.3312126552 -0.097698946618 -0.18602774627 0.46998844733 0.31118559249 -0.1929790769 -0.20371072847 0.52961841366 -0.093699032172 
0.42340372115 -0.060982082211 0.24233726053 -0.12812816453 0.082468532264 -0.12970494929 -0.006757704093 -0.12839685319 -0.037867633375 
-0.068382507871 -0.06648274607 -0.060529785163 -0.029553160382 -0.084311869807 0.026239630842 -0.091486487791 -0.079546221363 -0.11829010264 
-0.017181582337 0.14544821392 -0.048869335951 -0.048006393687 -0.042150349307 -0.014587809688 -0.063680072028 -0.072321509096 -0.12926818009 
-0.063678760991 -0.028323798113 0 0 0 0 0 0 0 
0 0 0 0 0 0 0 0 0 
0 0 0 0 0 0 0 0 0 
0 0 0 0 0 0 0 0 0 
0 0 0 0 0 0 0 0 0 
0 0 0 0 0 0 0 0 0 
0 0 0 0 0 0 0 0 0 
0 0 0 0 0 0 0 0 0 
-0.32907685437 0 -0.32820948434 0 -0.23777207136 0 -0.13510078429 0 -0.12329034957 
0 -0.020046723647 0 0 0.015543989193 0 0 -0.012957707495 0 
-0.049716813224 0 0.037013505552 0 0 0 0.22218369623 0.12582886597 0 
0 0.05663050523 0 -0.014963692087 0 0.060354506035 0 0.1152090505 0 
0.15847083393 0 0 0.10181623354 0 0.051096413035 0 0.031644102459 0 
0 0 0.096975406673 -0.13355486449 0 -0.16146154102 0 -0.10406561887 0 
-0.039202227515 -0.065236090245 0 0 -0.084614842394 0 0 -0.08054928921 0.31376802731 
0.43603659858 -0.054497500328 0.38671668767 0.38472014657 0.19603679112 -0.14803746349 0.36142164986 -0.19395945819 0.37148222272 
-0.097230186386 0.20488216384 -0.069821912272 0.17505446253 -0.070403980568 0.037234256411 -0.056777218444 0.017868084005 -0.079664476638 
-0.018744301365 -0.036913768504 -0.06190141728 0.14707792491 -0.093851707515 -0.021004828175 -0.055336357768 -0.086659736605 -0.05983037024 
-0.1235393737 -0.031715931143 0.077991060728 0.10063529311 -0.0011487717337 -0.035678150622 0.0036664874698 0.027492651684 -0.0058599844221 
0 0 0 0 0 0 0 0 0 
0 0 0 0 0 0 0 0 0 
0 0 0 0 0 0 0 0 0 
0 0 0 0 0 0 0 0 0 
0 0 0 0 0 0 0 0 0 
0 0 0 0 0 0 0 0 0 
0 0 0 0 0 0 0 0 0 
0 0 0 0 0 0 0 0 -0.73083899975 
0 -0.46714199023 0 0 -0.2849842218 -0.40186206227 0 -0.34638364829 0 
-0.28649597681 0 -0.27137614153 0 -0.24550937235 0 0 -0.16146266584 0 
0 -0.1516173229 0 0.0025908418782 0 0 0.011502330045 0 -0.022151717503 
0 0 -0.002351121822 0 0.15595708389 0 0.066123979762 0 0 
0.14135126987 0 0 0.010149435823 0 -0.039470457552 0 0 0 
-0.016546257578 0 0.15176973525 0 0 0 -0.0057423822969 0 0 
-0.026463921992 0 -0.027729056044 0 0.045019295838 -0.028213829334 0 -0.091558846528 0 
-0.1628535547 -0.1373842532 0 -0.054779558493 0 -0.023434908446 0 -0.056000343676 0 
-0.09628162208 0 -0.014250395598 0.16670222016 -0.055357619971 0.20340506275 0.23900265533 -0.053609359584 0.19516403839 
0.36528872043 -0.13051418072 0.52368948443 -0.16410401939 0.43304621715 -0.11902523396 0.085460513077 -0.067155165219 0.053953848659 
-0.096682247407 0.0087819705773 -0.11519112581 -0.10350077556 0.040917911937 -0.14083799072 0.0012981302174 -0.054863441474 -0.083641253586 
-0.14794909804 -0.14912207462 0.0020129859657 0.2081756013 0.21936884111 0.1625033221 0.023153381663 -0.041890639404 0.0063001339609 
0.10680037901 0.11623069532 0.013688421846 -0.054499493948 0 0 0 0 0 
0 0 0 0 0 0 0 0 0 
0 0 0 0 0 0 0 0 0 
0 0 0 0 0 0 0 0 0 
0 0 0 0 0 0 0 0 0 
0 0 0 0 0 0 0 0 0 
0 0 0 0 0 0 0 0 0 
0 0 0 0 0 0 0 0 0 
0 0 0 0 0 0 0 0 -0.66675729514 
0 -0.6826258262 0 -0.37311525117 -0.34851723862 0 -0.29195584501 0 0 
-0.21768104247 0 -0.14095731007 0 -0.19070108272 0 -0.13212090269 0 0.020212097259 
0 0.0068652650726 0 -0.067519859486 0 -0.077798038593 0 0.054378740799 0 
0 0 -0.051207935004 -0.1071871527 0 0.030411829938 0 0 -0.13943023318 
0 0 0.019389745277 0 0.072710996463 0 -0.015113935079 0 -0.18439193233 
0 -0.078214067112 0 -0.039207752948 0 0 -0.010396450567 0 0 
-0.013309167522 0 0 -0.079036083028 0 -0.14207132382 -0.030139657228 0 -0.027295661389 
0 -0.038190364517 0 0.19947423411 0.11159581174 -0.12767913516 0.11676589494 -0.11098727234 0.19738267698 
0.16951457745 0.1631553899 -0.14459266504 0.22553211711 -0.12802984255 0.45860874601 -0.11121191977 0.35686841902 0.18401152269 
-0.087969918959 0.15106968777 -0.055543498195 0.085665096561 -0.079174299895 -0.13237532269 0.035179185746 -0.054881000587 0.11669001279 
0.093537071899 -0.11744180317 0.0092612482208 -0.019025866561 -0.049704624388 -0.089980895856 -0.078860619114 0.027433595351 0.10320616331 
0.20541381082 0.060919760555 0.094541512823 0.12241599892 0.14863720289 0.14090243647 0.035354536683 -0.044686381182 0 
0 0 0 0 0 0 0 0 0 
0 0 0 0 0 0 0 0 0 
0 0 0 0 0 0 0 0 0 
0 0 0 0 0 0 0 0 0 
0 0 0 0 0 0 0 0 0 
0 0 0 0 0 0 0 0 0 
0 0 0 0 0 0 0 0 0 
0 0 0 0 0 0 0 0 0 
0 0 0 0 0 0 0 0 -1.2623135663 
0 -0.23255008837 0 0 -0.14890479786 0 0 -0.24212850512 -0.27345703353 
0 -0.25820606001 0 0 -0.15619406278 0 0 -0.091898458787 0 
-0.12077826592 -0.096697416593 0 0 -0.020127079101 0 -0.064418447168 0 0 
-0.14850492115 0 -0.19118272633 -0.061185773242 0 0 -0.26422726617 0 0 
-0.16085040953 0 -0.25426403363 0 -0.12932643991 0 0 -0.027992008821 0 
-0.054892283557 0 -0.21529853028 0 0 -0.29115451898 0 -0.11354364566 -0.13563278053 
0 -0.10720571609 0 -0.1044426135 -0.049508058928 -0.11269526907 0 -0.17454192529 0 
-0.22437222709 0 -0.092279413935 0 -0.015192680632 0 -0.033722374991 0.13341915891 0.21712052918 
0.18583775723 -0.081376899788 -0.1784729006 -0.18091446231 0.16444426689 0.15997815214 -0.21607247838 -0.14892800408 0.41510860003 
-0.070346137933 0.39114373674 -0.10308739322 0.19040325419 -0.13809054167 0.23183380569 -0.048106681339 0.14906013266 -0.012571249366 
-0.065837190807 -0.14169457939 -0.0060561194289 -0.089497140582 0.091716719234 -0.12416665366 0.059026986318 -0.085242135203 -0.094180790182 
0.046734901655 0.007667855249 -0.075491897825 -0.125201063 -0.077245539629 0.039860827979 0.083778721706 0.19234915572 0.052730342356 
0.02079449998 -0.024796361967 0 0 0 0 0 0 0 
0 0 0 0 0 0 0 0 0 
0 0 0 0 0 0 0 0 0 
0 0 0 0 0 0 0 0 0 
0 0 0 0 0 0 0 0 0 
0 0 0 0 0 0 0 0 0 
0 0 0 0 0 0 0 0 0 
0 0 0 0 0 0 0 0 0 
0 0 0 0 0 0 0 -0.6507753453 0 
0 -0.17059638071 0 -0.094533578959 -0.11301698055 0 -0.12110422783 0 -0.19566892184 
-0.19251673683 0 -0.078702374704 0 -0.040840270149 0 -0.057560401951 0 -0.032570605912 
0 -0.021150634662 0 -0.11762747037 0 -0.2214193139 0 0 0 
-0.17022658896 0 -0.17787417991 0 -0.28351595392 0 -0.25567195475 0 0 
-0.1480084888 0 -0.15377896815 0 -0.33385030058 0 0 -0.17526748327 0 
-0.14979776635 -0.19014770357 0 -0.13201986818 0 0 -0.13300767713 0 -0.29948739433 
0 -0.27542874559 0 -0.1834145117 0.87383856327 -0.28233623251 -0.073520773392 0.10507514375 -0.038651327052 
0.16561745492 -0.12710965165 0.088066147842 -0.17950867024 0.12502446748 -0.20195560888 0.16786638257 -0.23769187256 0.34835502706 
-0.18503088055 0.34053057156 -0.18593262698 -0.10849278103 0.2761491872 -0.16791755913 -0.062221658164 0.15138669894 -0.1056795723 