# vtk DataFile Version 4.2
vtk output
ASCII
DATASET POLYDATA
POINTS 5000 double
-74.048732298 -50.513646273 21.115874888 -73.538259621 -48.84766344 20.46991568 -73.143818895 -47.107752049 19.751046363 
-73.23930137 -45.681539947 20.946056391 -73.860161608 -50.43011265 19.156531904 -72.84975194 -45.2711466 18.857649653 
-73.265997139 -44.131108295 20.299725539 -73.427056228 -48.78230516 18.522322624 -73.090572591 -43.080921474 19.02708932 
-73.176067755 -47.061498806 17.927830803 -74.707278947 -51.82322182 17.795954158 -72.756044791 -43.818879143 17.375839968 
-73.939967486 -50.300006724 17.161072031 -72.760801614 -41.894482416 17.709383992 -73.05046408 -45.502159997 16.827713593 
-73.66945349 -48.761157272 16.549283817 -72.479402817 -40.612331709 16.311976534 -73.424864007 -47.126256031 16.175813294 
-72.670921242 -42.529504308 15.906098396 -74.627517179 -51.497790734 15.844483952 -73.013037949 -38.869152158 16.67944771 
-73.039974245 -44.307176612 15.373571361 -74.226690865 -49.935845719 14.905452135 -72.433742886 -39.279570425 14.892301228 
-73.829679399 -48.123645234 14.651579708 -73.440932907 -46.139702002 14.814412956 -72.629157589 -41.256611223 14.49318855 
-73.008029141 -43.001074584 13.951558086 -75.5514385 -52.760516325 14.796072877 -73.029749887 -37.640879126 15.369652908 
-74.744337602 -51.406035628 13.70247668 -73.410994612 -44.959528236 13.54033494 -72.610704701 -39.96868127 13.243459689 
-72.795817116 -38.122356432 13.221671661 -74.252897101 -49.01798388 13.002934543 -73.834615576 -46.988749285 13.121809213 
-75.665934189 -53.329787649 13.167551863 -72.966784061 -41.583611175 12.462525215 -74.624469447 -50.505113495 12.107409352 
-73.365113558 -43.681847635 12.259372659 -73.793971285 -45.595835337 11.766041433 -75.058453608 -52.255552365 11.741111762 
-72.863423542 -39.515671009 11.621907857 -74.279958754 -47.47567087 11.393884136 -73.306076534 -37.670024377 11.352531748 
-76.06704206 -53.759621526 11.229357478 -73.355730183 -42.519679739 10.952670808 -74.635474517 -49.113042173 10.825471776 
-73.197028877 -40.86343504 10.424071374 -73.780083359 -44.214392053 10.403463602 -74.976360439 -50.904651643 10.212198576 
-74.42152091 -45.924231359 9.9837864732 -73.424392237 -39.05458927 9.8652015321 -75.44600793 -52.66737548 9.723351311 
-75.102203037 -47.616535072 9.5048309006 -73.851949719 -42.445859951 9.2414348797 -76.625749324 -54.020103036 9.2233364106 
-75.352568381 -49.388696134 8.9486636931 -74.434356748 -44.15278189 8.6676742947 -73.916004414 -40.596421454 8.651520438 
-75.401399614 -51.214642136 8.2942372682 -75.998460541 -52.898733669 7.7264007761 -75.763276643 -49.612793119 7.0860863636 
-75.740355272 -51.487974688 6.3449486915 -76.828529695 -52.962721654 5.8424301622 -76.12461721 -49.895683796 5.3475395475 
-76.551571096 -51.569776061 4.5059082287 -73.528196227 -29.923595399 1.2675821966 -72.927426019 -28.262979071 0.45311316053 
-73.002976983 -29.900486405 -0.48639417913 -73.221402142 -28.093367419 -1.3426902614 -73.385943905 -31.416055388 -1.6553359483 
-74.162786133 -31.408728687 0.11176567423 -73.078879504 -29.609316033 -2.2876220617 -74.616818859 -33.027686358 -1.0056370496 
-73.674191564 -32.641420731 -2.819953274 -74.580471126 -34.234108487 -2.6969546041 -73.434383175 -30.500896225 -3.695169036 
-73.998337914 -28.333449805 -3.2374597787 -74.015812132 -33.780773341 -4.4926182493 -73.707703432 -32.042634681 -4.539300845 
-74.58875511 -35.443000325 -4.3503239306 -74.416931391 -29.422793791 -4.9216628014 -75.637825877 -37.038665881 -4.4093189313 
-74.217581581 -30.955547887 -5.7702953118 -74.720830839 -36.364576565 -5.9846797103 -74.380608137 -34.567932902 -6.2750799483 
-74.223406248 -32.808243978 -6.2741512365 -75.461841181 -38.01724062 -5.8630692798 -75.566574261 -39.341853565 -6.9853101068 
-75.088910084 -37.563402188 -7.5331338723 -75.09113962 -31.668033575 -7.3558088698 -76.649184144 -40.491393159 -6.2863614805 
-74.846254996 -35.642685073 -7.7984119164 -74.99292469 -33.647159089 -8.0272492346 -76.557513872 -42.058771848 -7.4976839494 
-75.78347487 -40.693943542 -8.2408385895 -75.542281529 -38.919578565 -9.0111071682 -77.13559451 -43.748686139 -8.5271995934 
-75.381513812 -37.075465114 -9.1643481158 -76.271548742 -42.331618914 -9.3964746711 -75.606508563 -35.056091734 -9.3405935696 
-76.037076344 -40.393043764 -10.180993794 -77.303318042 -43.939169834 -10.395219003 -76.27551673 -38.414237566 -10.846343603 
-76.149718517 -36.551407614 -10.46740034 -76.807809662 -41.943118489 -11.095768024 -76.993229737 -40.011716942 -11.812583285 
-74.767493971 -50.696822915 23.021059458 -74.052428831 -49.028855412 22.445009166 -74.244024277 -47.382490649 23.561327069 
-73.893859051 -45.63213145 22.83270871 -73.648246578 -47.312190193 21.723032379 -74.921882786 -52.045514892 21.649522381 
-74.060603778 -44.024854351 21.960130353 -75.671511988 -53.389061366 20.199279881 -74.709586512 -51.937274055 19.730262618 
-74.201389953 -42.541784831 20.719287043 -73.947476756 -41.360822568 19.401499115 -75.634491776 -53.325690328 18.34705732 
-73.357257428 -40.259875511 18.011366066 -75.756424022 -53.040953069 16.504078747 -76.70592217 -54.336412728 14.923293125 
-73.354072857 -36.615010789 14.096770487 -76.913838505 -54.659532601 12.884002926 -73.674460229 -36.193406576 12.491024668 
-77.595422632 -54.722240615 10.841046576 -73.88930539 -35.764356592 10.817304629 -73.731295245 -37.207705267 9.5050113037 
-74.253103532 -35.408260518 9.0612709566 -75.234122663 -46.020359131 8.2805026795 -74.075780703 -38.647749522 8.1322214828 
-72.683455906 -28.852811397 8.4356055753 -73.561850565 -30.220949455 8.279470775 -75.758441453 -47.824016162 7.6053193803 
-74.434406942 -36.755317764 7.723657974 -73.028040585 -27.046036177 8.5905320162 -74.649947486 -42.201974657 7.5707045268 
-77.487509357 -54.090407424 7.3687109145 -75.205987715 -44.467456032 7.1159262558 -74.508623146 -40.130376339 6.9343679743 
-72.531269157 -28.014985992 6.7412593595 -73.067320567 -29.909461613 6.6279648866 -75.838655141 -46.260028292 6.4002243194 
-74.689831803 -38.155134478 6.3843328374 -73.12654873 -26.288343389 6.8739004372 -75.198140225 -43.026689166 6.0889707142 
-75.036568124 -41.276866753 5.6308427389 -76.269088533 -48.026403536 5.5455874294 -72.674335193 -28.704027066 4.9750276182 
-72.928999059 -26.643046571 5.1690643434 -75.963385867 -44.544754843 5.3384428329 -75.135713278 -39.415327635 5.1322270286 
-73.54552459 -30.200010639 4.9630768375 -76.67963402 -46.086821475 4.6477587822 -75.800373638 -42.635575369 4.4441584536 
-77.890414452 -52.953124389 4.137040194 -75.823345873 -40.688784037 3.9124054219 -72.900474772 -27.488618426 3.6089711135 
-76.989446963 -49.636667016 3.8205324193 -77.128980728 -47.618998731 3.7734740325 -73.623454946 -29.628270324 3.28294705 
-77.777278147 -51.293269365 2.9344441439 -73.075527276 -28.441698741 2.1690669997 -73.233103147 -26.673540658 1.9060877805 
-73.694154207 -25.609876598 3.6074979021 -73.650835994 -26.600745979 -0.00094420029024 -74.450649988 -26.818744944 -1.8440849207 
-75.578425498 -34.856702479 -1.2333236494 -75.69602566 -35.839568421 -2.866992355 -75.419943234 -28.062741839 -4.5352573845 
-76.739247271 -38.845225585 -4.9799055404 -75.50181993 -29.877592607 -6.6776815868 -77.953143306 -42.987642032 -7.0577249652 
-76.021028042 -32.1629593 -8.8204375233 -78.332204601 -45.164387123 -9.0930860899 -76.370522814 -33.44150435 -9.8143018792 
-78.499120616 -45.858211657 -10.713120263 -76.888374448 -34.908969501 -10.88251362 -78.295998588 -44.709927668 -11.980252038 
-77.841297602 -43.107882703 -12.106123903 -77.282815161 -36.644666341 -11.760528249 -77.990507584 -41.442851996 -12.624457342 
-77.711671099 -38.268786784 -12.397799883 -78.628158695 -39.75716487 -13.078050682 -74.93745169 -49.152149572 24.210582389 
-75.218619078 -47.484867149 25.157773146 -74.713302227 -45.665842426 24.597271732 -75.921596982 -50.846292994 24.637744536 
-75.855168634 -52.274050161 23.43266324 -74.926355877 -43.982857829 23.64907105 -76.092995997 -53.332325315 22.001126992 
-77.019653824 -54.458090401 21.000571156 -76.852079316 -54.570272471 19.021067033 -75.101246079 -39.897733706 19.165566261 
-74.376271638 -38.845597833 17.921347936 -76.86302556 -54.423977954 17.004897628 -74.250262986 -37.31774572 16.919117697 
-74.146081774 -36.015335753 15.666499034 -78.024181802 -55.607051336 16.014425513 -74.223093535 -35.015827839 14.048293727 
-78.119854562 -55.628729742 14.153944746 -74.474692933 -34.31386879 12.34029344 -78.532882633 -55.537653718 12.286936935 
-73.471262595 -29.432670065 11.572912125 -73.789781019 -27.655898903 11.901372289 -74.672169777 -34.060945797 10.577681775 
-73.154402174 -28.105559401 10.174165363 -73.493011515 -29.957958229 10.03952004 -74.029354527 -26.376060298 10.214117712 
-78.227993212 -55.012825439 8.9129355712 -75.066367665 -33.758359608 8.7291376944 -74.86123138 -30.943869892 9.4257969601 
-74.942129364 -34.869331295 7.2836863207 -74.02638248 -25.555301544 8.1513836398 -74.898828991 -30.962138626 7.4211509687 
-79.163672004 -55.233591809 7.1882802439 -74.980188112 -36.265706748 5.9333861778 -75.234767263 -34.38163327 5.5249454852 
-74.811519143 -31.154989203 5.7983019053 -74.145241277 -25.117767951 5.8429283506 -78.524538821 -54.080621878 5.7052789576 
-75.337120427 -37.525388165 4.5563656823 -75.257550324 -35.708497215 4.0336406145 -74.936783219 -31.031328097 3.8330656188 
-75.549350534 -33.992783151 3.7551975403 -79.663479308 -54.165791098 4.1906933769 -76.559331283 -44.116930113 3.6171588271 
-75.766401704 -38.790642244 3.3451502506 -77.113762529 -45.638134703 2.8025282626 -76.427118717 -42.115549163 2.8080147602 
-75.588441973 -36.758800143 2.5613666414 -79.21660456 -52.888475282 2.7827075431 -77.914174901 -48.753561483 2.4938522451 
-76.305819028 -40.217170317 2.0660013205 -75.641671815 -34.700000319 2.1135274963 -74.713969505 -31.026143607 2.0236468697 
-77.841358906 -47.022617265 1.9139473641 -76.960756314 -43.627350693 1.8418591224 -74.279854767 -25.331939323 1.4842105897 
[...]
POINT_DATA 5000
SCALARS thickness_change_(mm) double
LOOKUP_TABLE default
0 0 0 0 0 0 0 0 0 
0 0 0 0 0 0 0 0 0 
0 0 0 0 0 0 0 0 0 
0 0 0 0 0 0 0 0 0 
0 0 0 0 0 0 0 0 0 
0 0 0 0 0 0 0 0 0 
0 0 0 0 0 0 0 0 0 
0 0 0 0 0 0 0 0 0 
0 0 0 0 0 0 0 0 0 
0 0 0 0 0 0 0 0 0 
0 0 0 0 0 0 0 0 0 
0 0 0 0 0 0 0 0 0 
0 0 0 0 0 0 0 0 0 
0 0 0 0 0 0 0 0 0 
0 0 0 0 0 0 0 0 0 
0 0 0 0 0 0 0 0 0 
0 0 0 0 0 0 0 0 0 
0 0 0 0 0 0 0 0 0 
0 0 0 0 0 0.56454288718 0 0 -0.4050852358 
0 0 0 0 0 0 0 0 0 
0 0 0 0 0 0 0 0 0 
0 0 0 0 0 0 0 0 0 
0 0 0 0 0 0 0 0 0 
0 0 0 0 0 0 0 -1.0771881103 0 
0 0 0 0 -0.49757789201 0 0 0 0 
0 0 0 0 0 0 0 0 0 
0 0 0 0 0 -0.93428894213 0 0 0 
0 0 0 0 0 0 0 0 0 
0.038016290604 0 0 0 0 -0.16212997254 0 -0.37298068733 0 
0 0 0 -0.29656276739 -0.13473321066 0 0 0 -0.19378894183 
0 -0.086851320395 0 0 0 0 0 0 0 
0 0 0 0 0 0 0 0 0 
0 0 0 0 0 0 0 0 0 
0 0 0 0 0 -0.05085279292 0 0 0.39114267541 
-0.002460128568 0 0 0.051916243187 0 0 0 0 0 
0 0 0 0 0 -0.079019581601 0 0 0 
0 0 0 0 -0.3142041766 0 0 -0.20251502183 0 
-0.30830173454 0 0 0 0 0 0 0 0 
0 0 0 0 0 0 0 0 0 
0 0 0 0 0 0 0 0 0 
0 0 0 0 0.3414193638 0 0.11901129017 0 0 
0.23650277958 0 0 0 0.26292682736 0 0 0 0 
-0.050760024999 0 0 0 0 -0.2014909015 0 0 -0.058716193873 
0 0 -0.46144977915 0 -0.21801317843 0 -0.14985846085 0 -0.44762486041 
0 -0.11672176394 0.059442168528 0 0 0 0 0 0 
0 0 0 0 0 0 0 0 0 
0 0 0 0 -0.58640527214 0 0 0 0.068627268784 
0 0 -0.15243756592 0 -0.22938454909 0 0 0.20676255689 0 
0 0 -0.080005834243 0 0 0 0 -0.15084719416 0 
0 -0.19287380095 0 0 0 -0.21306172008 -0.2905114648 0 0 
0 0 -0.79659522456 0 0 0 0 0 0 
0 0 0 0 0 0 0 0 0 
0 0 0 0 0 0 0 0 0 
-0.16555469837 0 -0.16262340195 -0.20626528915 0 0 0 0 0 
0.010706685808 0 0 0.08053603125 0 -0.057088527838 0 0 0.18884294724 
0 0 0 -0.043187784927 0 0 0 -0.12324742378 0 
0.11881680414 0 0.12382942961 0 0 0 0 0 0 
0 -0.19116992074 0 -0.037398763209 -0.32099315449 0 0 0.27751286381 0 
0 0 0 0 0 0 0 0 0 
0 0 0 0 -0.081580885732 0 -0.089427247981 0.045727995044 0 
0.040273541506 0 0 0 0 0 0.037677714935 0 0.036699091588 
0 0.10436734012 0 0 0.078571282634 0 0 0.010092457491 0 
0 0 0 -0.11928914374 0 -0.12152841199 0 -0.10307182389 0 
-0.089265982864 0 0 -0.55295808229 0.1936878331 -0.46198883059 0 0 0 
0 0 0 0 0 0 0 0 0 
0 0 0 0 0 0 0 0 0 
0 0 0 0 -0.040051899236 0 0.289190884 0 0.1568018917 
0 0 0 0 0.18326135675 0 0 0 -0.10245659628 
0 0 0 0 -0.069827193152 0 -0.027649575922 0 0 
0.0056729061506 0 0 -0.099982678981 -0.49354000613 -0.0020490663585 -0.019855864507 -0.15133678978 -0.010446492795 
0 0 0 0 0 0 0 0 0 
0 0 0 0 0 0 0 0 -0.099890131395 
0 0 -0.14952341837 0.012087275292 0.16680024696 0 0.20176163148 0 0 
0.13929517275 0 0 0.27231561595 0 0.25017622217 0 0.28662653009 0 
0.18965667193 0 0.084739630759 0 0 -0.14419816364 0 0 -0.071428937152 
-0.10404040664 0 0 0 -0.14492515733 -0.34060347597 0.33860260724 -0.065881705679 0.0075352185003 
0 0 0 0 0 0 0 0 0 
0 0 0 0 0 0 0 0 0 
0 0 -1.3579954834 0 -0.22166129064 0 0 0 0 
0.19891976954 0 0.15204371297 0 0.15342364386 0 0 0.28528099334 0 
0 0 -0.069742526162 0 0 -0.095907658579 -0.15971572096 0 -0.08810311603 
-0.11015295644 0 -0.092664786745 -0.22449432375 -0.21319431372 0.034996619391 0.011447365988 -0.065669651891 -0.031131106367 
0.12594009681 0 0 0 0 0 0 0 0 
0 0 0 0 0 0 0 0 -0.10769682236 
0 -0.054229587546 0 0.23749723041 0 0.21092484961 0 0 0.19451690741 
0 0 0 0.35742779263 0 0.29125591906 0 0.19150560636 0 
0.055615131388 0 -0.052868216228 0 0 -0.075530544716 -0.15264506768 0 -0.21274088054 
0 0 -0.17631214007 -0.1945868101 -0.13001686648 0.13107737335 -0.10627446486 -0.35541194243 -0.042380915542 
0 0 0 0 0 0 0 0 0 
0 0 0 0 0 0 0 0 0 
0 0 0 0 -0.21189790665 -0.14268951793 0 0 -0.041877334781 
0 0.19382946546 0 0.077060658778 0 0.10436503655 0.1263444114 0 0 
0 0 0.048503163577 0 0.044900401171 0 0 0 -0.15602019084 
0 -0.058841595645 -0.22770756856 -0.21783501398 0.048994841662 -0.13247183994 0.13925254274 -0.060895145465 0.056132645222 
0 0 0 0 0 0 0 0 0 
0 0 0 0 0 0 0 0 0 
0 0 0 0 0 0 0 -0.38235477004 -0.26284960525 
-0.10748249759 0 0 0.012521968541 0 0.036501469369 0 0 0.26934011613 
0 0 0 0 0.14310230369 0.073800524082 0 0.11074996937 0 
-0.035313902054 0 0 -0.074374174721 0 -0.13505527808 0 -0.21873886973 0.88395948535 
0.38181082305 -0.14568915737 -0.090113253675 -0.14709727784 0.13888783646 -0.1065707085 0.055514727819 -0.17066411209 0.047546143876 
-0.16924913448 -0.026357551567 0.05405679505 0 0 0 0 0 0 
0 0 0 0 0 0 0 0 0 
0 0 -1.6374108734 0 0 -0.35375643989 0 -0.062301259352 0.025525642444 
0 0 0.016112855073 0 -0.15542206598 0 0.071500830698 0 0 
0 0 -0.10831450214 0 -0.1211383384 -0.081059844378 -0.026063942236 0 0.43892463047 
-0.20490918886 -0.93264696482 0.15831882291 -0.2002555506 -0.10613597309 -0.010853445066 0.027673804377 -0.07748790078 0 
0 0 0 0 0 0 0 0 0 
0 0 0 0 0 0 0 0 0 
0 0 0 0 0 -0.60673449756 0 -0.24776609707 0 
0 0 -0.01580960556 0 0 0 0.243544557 0 0 
0 0.15937163186 0 -0.059056652173 0.031196211511 0 0 0 -0.076464403964 
0.47581979067 0.43085595649 -0.096164817835 0.32562563336 -0.051732205032 -0.11478838433 0.24783462084 -0.022239038001 -0.020802276391 
-0.020523161239 0.29834638794 -0.0020135077115 0.16043378503 0 0 0 0 0 
0 0 0 0 0 0 0 0 0 
0 0 0 0 0 0 0 -0.59199422106 -0.43346218056 
0 0 -0.24232675663 0 -0.12044206673 0 -0.072055482398 0.075299189913 0 
0 0.16659509982 -0.11226613714 0 0.12872679147 0 0 0.0023111177421 0 
-0.11122418058 0 -0.1347588626 0 -0.065616905935 0.20936475083 -0.41141037511 -0.017192749558 0.22122135654 
-0.2063486697 -0.13620863554 0.10378960302 -0.040263467685 -0.12944360149 -0.068415014769 0.0073923365366 0.18643939616 0.0965768254 
0.080818397914 -0.038417875036 0 0 0 0 0 0 0 
0 0 0 0 0 0 0 0 0 
0 0 0 0 0 0 0 0 0 
0 0 0 0 -0.36909078231 0 -0.35803022381 0 0 
0.0082598344394 0 -0.097736834801 0 0.045268078945 0 0 0 0 
-0.23337398416 -0.0060375010717 0 -0.06587297755 0 -0.21282889596 0 -0.02563378039 -0.15072551958 
0.7722809642 0.12245018477 0.42269712085 0.31128720722 0.2016194178 -0.16333502079 -0.051430713032 -0.079967889872 -0.091135603196 
0.041424264984 0.073034015541 -0.044984158587 0 0 0 0 0 0 
0 0 0 0 0 0 0 0 0 
0 0 0 0 0 0 0 0 0 
0 0 0 0 -0.13350396579 0 -0.23616464822 0 -0.18486372379 
0 -0.090106130204 -0.052967434844 0 -0.18584911857 0 0 -0.10404685225 0 
-0.27271736672 0 -0.060599081734 0 0 0.13008833775 -0.16038950953 -0.11995312851 -0.11199615848 
0.27147724684 0.17967396742 -0.15583636746 -0.017936595071 0.13829864152 -0.019507215625 -0.05513330561 0.0027987336735 0.092076737707 
0.11145880211 0 0 0 0 0 0 0 0 
0 0 0 0 0 0 0 0 0 
0 0 0 0 0 0 0 0 0 
0 -0.67142580195 0 -0.11783337203 0.020476395071 0 -0.053948270573 0 0 
0 -0.25881982547 0 -0.37041160254 -0.29396257974 0 -0.13713380049 0 -0.13272718418 
0 -0.25761030685 0 -0.27110669825 -0.26036918923 -0.014669029193 0.018745440299 -0.10595053196 0.052960278748 
0.14992393062 -0.23968530748 0.30953339984 -0.21569781174 -0.13462182704 0.001901900758 -0.067851154481 -0.061111289369 -0.14242764432 
0.022826387209 -0.0099268263162 0 0 0 0 0 0 0 
0 0 0 0 0 0 0 0 0 
0 0 0 0 0 0 0 0 0 
-0.29295944243 0 -0.12195022855 0 -0.082126774886 0 0 -0.084820630677 -0.2424153066 
0 0 -0.14677057788 0 -0.27774811231 0 0 1.3958864252 0.23061030207 
-0.16228536599 0.0060329980794 0.15475046336 -0.11550198579 -0.16796641784 0.07702393811 -0.21989882494 0.015217142248 -0.29660107052 
-0.026794516971 -0.081434493053 0.073332605756 -0.0021745759576 0 0 0 0 0 
0 0 0 0 0 0 0 0 0 
0 0 0 0 0 0 0 0 0 
0 0 0 0 0 -0.19408920219 0 0.040463773542 -0.015263564379 
0 0.01922769612 0 0.10144374458 0 0 0.013580997158 0 -0.083276602576 
-0.33971178938 -0.32801867907 -0.033075612071 -2.0776792151 -0.088600292901 0 -0.19897203852 -1.6108824052 0.22669951589 
-0.076906063527 0.061773777953 -0.21415974736 0.26114566567 -0.30060326019 0.27689097608 -0.28722399014 0.032563540322 -0.018999287996 
-0.11255400699 -0.037694009587 -0.16877069128 0.035674575895 -0.039104748162 0.2003585642 0.0048455557261 -0.028480713696 0 
0 0 0 0 0 0 0 0 0 
0 0 0 0 0 0 0 0 0 
0 0 0 0 0 0 0.4514727765 0 0.13205487426 
0.17351356239 0 -0.062045065269 0 0 0 0.15836602079 -0.29968607023 0 
-0.041185084362 -1.1354997079 -0.11213306544 -0.0094593947821 -0.067323929944 -0.015485910801 -0.26661111691 0.27815832887 0.3509698936 
-0.11058235815 -0.070882703912 -0.04240515046 0.21885533961 -0.29502473435 0.36365101174 0.075255800751 -0.22258908409 -0.039731521977 
-0.020480338873 0.078568124781 -0.11359049585 0 0 0 0 0 0 
0 0 0 0 0 0 0 0 0 
0 0 0 0 0 0 0 0 0 
0 0.22876240751 0 0.2422392216 0 0 0 -0.050084622762 0 
0.12510551552 1.1167289031 -0.054053631525 -0.61393348678 -0.73956153461 -0.26432916153 -0.034096169371 0.11280964203 -0.052260520577 
0.13921720438 -0.024637152082 -0.038324587474 0.18552424633 0.11225646486 -0.28484884713 0.27422877971 -0.1376125073 -0.065890536424 
0.19906944661 0.18734512625 0.024903870957 -0.050244696823 0.023422372119 0.023749025785 -0.0034752026367 0.0048304311498 0 
0 0 0 0 0 0 0 0 0 
0 0 0 0 0 0 0 0 0 
0 0 0 0 0 -0.27121120686 0 0.25876349382 0 
-0.045228604561 0 -0.052693664427 -0.56499678643 0.05097010301 -0.37522651937 -0.23381297534 0.031668529388 -0.35676697123 
0.073984525887 -0.10337029639 0.0374518888 0.16806866019 -0.4522727928 0.34088527327 0.27262350966 -0.082779194749 -0.093836756663 
0.031136280592 -0.097061217073 -0.085704114733 0.26060505963 -0.14815816218 -0.0067837498331 -0.097265674591 0.086544299524 -0.011965053323 
-0.0050459144919 0.0042811683442 0.071712752001 0 0 0 0 0 0 
0 0 0 0 0 0 0 0 0 
0 0 0 0 0 0 0 0 0 
0 0 0 -0.26787685242 0 0.028548208445 0 0.032339863333 0.22318387375 
-0.14888973298 -0.026839542793 0.083388614722 -0.13312154555 0.15439214207 0.035691995331 0.068743053899 0.024034038807 0.019239187005 
0.24656222755 0.22302129499 0.59843896105 -0.042119839776 -0.10697719386 -0.025002931854 -0.20947064274 0.11914195678 0.31071117168 
-0.077667625164 0.17698515575 -0.024297258634 0.21252868085 0.0096735749775 0.11919862319 0.021164183857 0.040178482893 0.13124425361 
0 0 0 0 0 0 0 0 0 
0 0 0 0 0 0 0 0 0 
0 0 0 0 -0.47333672723 0 -0.60227138953 0 0 
8.9908826936e-05 -0.53972118945 1.0586896371 -0.13222604415 -0.24729958359 0.070115508737 -0.07595980367 -0.049810375809 -0.012937729831 
0.091078292631 -0.059625938869 0 0 -0.0047449916333 0 0 0 0 
-0.1715282073 -0.14861753949 -0.062541952056 0.11639371276 -0.067082352864 0.25247686275 -0.088602975022 -0.26631093267 -0.12022986926 
-0.67248716039 0.22306086349 -0.11607893073 0.22731937263 0.015695096005 0.34135603818 0.031818862496 0.011466765863 0 
0 0 0 0 0 0 0 0 0 
0 0 0 0 0 0 0 0 0 
0 0 0 0 0 0 0 0 0.51773456506 
0.4579466106 0 0 0 0 -1.2028734337 0 0 0 
0 0 0 -0.043034754188 0 0 0 0.7400470961 0 
0 0 0 0 0 0 0 0.1691365498 0 
0 0 0 0.11495192889 0 0 -0.46240333795 0 0 
0 0.23951086637 0 0 0.1974481328 0 0 0.79686218109 0 
0 0 0 -0.52295030287 0.20399058578 0 0 -0.18012107113 0.10832381624 
0.43261235709 0 0.060436467919 0 -0.11968757304 -1.1556694017 -0.41303218455 0.26789002029 0.083219750161 
-0.051736605025 0.033228988754 0.094205114348 -0.15818515726 -0.11602382119 -0.076501661103 0 0 0 
0 0 0 0 0 0 0 0 0 
0 0 0 0 0 0 0 0 0 
0 0 0 0 0 0 0 0 0 
0 0 0 0 0 0.37609207704 0 0 0 
-0.18379158914 0 0 0 0 0 0 0 0.061257922896 
0 0 0.044711041994 0 0 0 -0.02710871625 0 0 
0 0.1785920632 0 0 0 0.24664083101 0 0 0.56657759808 
0 0 0 0 0 0.22858274353 -0.077313415448 0 0 
0.0083067684531 0.063896187131 0 0.1535649587 0 0.05635103345 0.074945642504 -0.033034601779 0.1209457976 
-0.12515681216 0.10350474122 0 0 0 0 0 0 0 
0 0 0 0 0 0 0 0 0 
0 0 0 0 0 0 0 0 0 
0 0 0 0.040474849488 0 0 -0.11571352834 0 -0.098584275137 
0 0.072032165956 0 0 0 -0.017243689974 0 -0.063057402303 0 
0 -0.1081930861 0 0.10921968541 0 0 0 0 -0.10031699833 
-0.033139127306 0 0.1313818809 0.02198779116 0.086202068799 0 0 0 0 
0 0 0 0 0 0 0 0 0 
0 0 0 0 0 0 0 0 0 
0 0 0 0 0 0 0 0 0 
0 1.5064599188 0 -0.20174860748 0 0 0 0 -0.093335586539 
0 -0.11532521107 0 -0.12299596465 0 0 0 0 0.26569289753 
0 -0.058839791332 0 -0.28942322476 0 -0.16229848755 0 0.15013508951 0 
-0.025765149325 -0.049202343232 0.2787456513 0.26332602873 0.31137777114 0 0 0 0 
0 0 0 0 0 0 0 0 0 
0 0 0 0 0 0 0 0 0 
0 0 0 0 0.11669003286 0 -0.065869698836 0 -0.14822836194 
0 0 -0.124620902 0 -0.14434158553 0 0 0.18544264305 -0.047447035318 
0 0 -0.064527205128 -0.0053174238656 0.035278380786 -0.0039146983399 0.06303110654 0 0 
0 0 0 0 0 0 0 0 0 
0 0 0 0 0 0 0 0 0 
0 0 0 0 0 0 0.21199510405 0 0 
-0.15374165838 -0.035466180432 0 -0.12565932642 -0.20784428167 0 -0.15174879743 -0.14540877617 0 
0 0.66150706742 0 0.022286146431 -0.054018389116 -0.13649440824 0 -0.031892185195 0.040649515516 
-0.72033611283 0 0 0 0 0 0 0 0 
0 0 0 0 0 0 0 0 0 
0 0 0 0 0 0 0 0 0.12914368062 
0 -0.15217376845 0 -0.1325310623 0 0 0 -0.42525063312 -0.71423855937 
0 0.32559405434 -0.0074758786965 -0.15946594749 0 -0.11797078266 -0.083854105568 -0.037741427088 0.15514061039 
0 0 0 0 0 0 0 0 0 
0 0 0 0 0 0 0 0 0 
0 0 0 0 0 0 0 0 0 
0 0.52969230371 0 -0.10526536033 0 -0.037894371212 0 0 0.0045002530427 
0 -0.1090243927 0 -0.21777419799 0 -0.20526378223 0 -0.14520266992 0 
0 -0.2497437756 -0.028714424643 0 -0.067140177172 -0.025724696344 -0.19693544412 0 0.26045517094 
0 0 0 0 0 0 0 0 0 
0 0 0 0 0 0 0 0 0 
0 0 0 0 0 -0.27004469232 0 -0.19712285139 0 
-0.22574377027 0 0.019416550765 0.033986399155 0 -0.040424455661 0 -0.54616041967 0 
-0.074243031285 0 0.0034431837765 -0.036231565433 0 -0.066210000327 -0.016116516941 -0.16999292724 0 
0 0 0 0 0 0 0 0 0 
0 0 0 0 0 0 0 0 0 
0 0 0 0 -0.57151997722 0 0 -0.041919603752 0 
-0.30162784689 0 -0.021304830913 -0.1187201447 0 -0.026789554855 0.076880175798 -0.12209065105 0 
0.0045655108353 -0.22889634843 -0.31339234349 0 0 0 0 0 0 
0 0 0 0 0 0 0 0 0 
0 0 0 0 0 0 0 0 0 
0 0 0 0 0.40758391814 0 -0.025362151983 0 0 
-0.32187805186 0 0 0 0.0062634808424 0 -0.000926352866 0 0.10229119871 
0 -0.094364730351 0 0 0.0065424558993 0.21887270381 0 0.33651911649 0 
0 0 0 0 0 0 0 0 0 
0 0 0 0 0 0 0 0 0 
0 0 0 0 -0.23645432908 0 -0.33487494366 0 0 
0 -0.013967519143 0 -0.11586826041 0 0.032767247873 0.18232792789 0 0.16227253985 
-0.2143316716 -0.53476083868 0 0 0 0 0 0 0 
0 0 0 0 0 0 0 0 0 
0 0 0 0 0 0 0 0 0 
0 0.090837631894 0 -0.0035557592106 0 0 -0.23826553849 0 -0.28369792606 
0 -0.036840692041 0 -0.22528035829 0 0.011891430292 0 -0.065806795998 0 
-0.11364088808 0 0.076517937311 -0.11587030162 0.26974102161 0 -0.53693809349 0 0 
0 0 0 0 0 0 0 0 0 
0 0 0 0 0 0 0 0 0 
0 -0.077356311321 0 -0.12768979094 0 -0.13988539091 0 0.035897068053 0 
0.007048776168 0 -0.016321454566 -0.003459162914 -0.11018867826 0 0.18651908705 0 -0.19684835309 
0 0 0 0 0 0 0 0 0 
0 0 0 0 0 0 0 0 0 
0 0 0 0 0 0 0 0 0 
0 0 -0.010372497736 0 -0.015691688715 -0.1896364018 0 0 -0.23362317381 
0 0 0 0 0 0 0 -0.10068227651 0 
0 -0.0011930179094 0 -0.071269727128 0.046585594932 0.037124012579 -0.33614439561 -0.65390902793 0 
0 0 0 0 0 0 0 0 0 
0 0 0 0 0 0 0 0 0 
0 0 0 0 0 -0.045938271691 0 0 -0.18570515308 
-0.05019388136 0 -0.20840161022 0 0 0 0 0 -0.025265658852 
0 0 -0.0083261236207 0 -0.33199878518 0 -0.28812783863 0 0 
0 0 0 0 0 0 0 0 0 
0 0 0 0 0 0 0 0 0 
0 0 0 0 0 0 0 0.21450310217 0 
0.061886999421 0 0.063245830282 0 -0.32817088729 0 -0.043481099775 0 -0.18672579505 
0 0 0 -0.059438908554 0 0.033986494735 0 0.11961603145 0 
-0.088811336347 0 -0.14649637066 -0.56138632172 0 0 0 -0.85113567228 0 
0 0 0 0 0 0 0 0 0 
0 0 0 0 0 0 0 0 0 
0 0 0 0 0 0 0 0.052509328505 0.028513878088 
0 0 0 0 -0.18339334307 0 -0.040670712548 0 0.13060278321 
0 0 0 0 -0.075887858572 0 0 -0.011307920109 0 
0.16288345656 -0.21201558239 0 -0.7086847248 -0.4676068024 0 -2.4120895974 0.045516357597 0 
0 0 0 0 0 0 0 0 0 
0 0 0 0 0 0 0 0 0 
0 0 0 0.15409877096 0 0 -0.044165315141 0 0 
0.089832459448 0 0.23969639663 0 0 0 0 0.0056657658552 0 
0 0 0 -0.066009932893 0 0 0 0 -0.08290530833 
0 0 0 0 -0.11784433552 0 0 0 0 
0 -0.17196373568 -0.24841250628 0 -0.5894295561 0 0 -1.6736418193 -0.043517990382 
-0.27425026766 0 0 0 0 0 0 0 0 
0 0 0 0 0 0 0 0 0 
0 0 0 0 0 0 0 0 0 
0 0 0 0 0 0 0 0.070581603657 0 
-0.089988031237 0 0 0.019050664486 0 0 0 -0.0132985295 0 
-0.036280925539 0 0.026278963542 0 -0.0724695299 0 0.1333560565 0 -0.1321716755 
0 0 0 0 0 0 0 -0.041986076507 0 
0 0 0 0 0 -0.010617112325 0 0 0 
0 -0.06266784551 0 0 -0.12624231143 0 0.69523472432 -0.47394006879 -0.47009034714 
-0.53137992618 0.41255381997 -0.13193594411 0.30454173839 -0.090812142543 0.044502392193 -0.41619923145 0 0 
0 0 0 0 0 0 0 0 0 
0 0 0 0 0 0 0 0 0 
-0.064411531963 0 0.1193270013 0 0 0 0 0 0 
0 0.055595151643 -0.023142477215 0 0 0 0 0 0.16334879612 
0 0 0.19546995568 0 0 0 0.066080136289 -0.023016490321 -0.71490387962 
-0.41166976897 -1.7309366488 -0.54997740721 0.1454931827 -0.54379455402 -0.2158708411 0 0 0 
0 0 0 0 0 0 0 0 0 
0 0 0 0 0 0 0 0 0 
0 0.11006080848 0 0.09157153132 0 0 0 0.079342290198 0.32640388593 
-0.098443962949 0 0 0 0 0.47356916917 -0.043281841751 -0.0069950261844 -0.342637584 
0.063832474825 -0.85503512041 -0.14120543129 -0.21006698485 -0.50562287099 -0.17963089842 -0.46287083521 -0.45982914087 0.011705503307 
-0.39312112445 -0.27023559513 -0.10983353952 -0.14271829997 0.062677314925 0.043846888426 0.024955620409 0 0 
0 0 0 0 0 0 0 0 0 
0 0 0 0 0 0 0 0 0 
0 0 0 0 0 0 0 0 0 
0 0 -0.0092338901402 0.16486953758 -0.03883518894 -0.23461913725 -0.062151340845 -0.05203231015 0.0083707158859 
0.070179166463 -0.17582084395 -0.11010172146 -0.15555708514 -0.26424876563 -0.20107154296 0.5132827957 0.25694794754 0.13363666482 
-0.11470926546 0.33208246502 -0.14873255966 -0.40747533577 -0.54986367697 -0.21369627646 -0.39639795513 0.049413499487 -0.21816201354 
-0.60928780524 -0.26949492231 0.084732434712 0.059031878995 -0.11761082259 0 0 0 0 
0 0 0 0 0 0 0 0 0 
0 0 0.42087351834 -0.011786939348 0 0 0 0.0012928319793 0 
0.52869423629 0.036979507329 0.39248760973 -0.014373913665 0.072671507635 0.45042087913 -0.037113694444 0.72502250675 -0.0054594201315 
0.36447799086 -0.1506875838 0 0.033793855998 0.94750944427 0.098072414471 0.057285641686 -0.13426082636 -0.15242935859 
-0.086948852798 -0.15348973966 0.21873542704 0.026399871514 -0.016010343693 0.13200303244 0.19996785934 0.18551083112 0.19870593819 
0 0 0 0 0 0 0 0 0 
0 0 0 0 0 0 0 0 0 
0 0 0 0 0 0 0 0 0 
0 0 0 0 0 0 -0.057506785579 0 0 
-0.16900816683 0 0.025394568166 0.3174207898 0.057537021005 -0.044974073326 0.1336343376 0.55292018402 -0.089971606985 
0.62679745494 -0.17373512914 0.56752161135 0.71736704302 0.078340462904 0.52228164202 -0.19364531959 -0.38387554698 0.33825455127 
-0.55641053279 0.30375363706 0.11833858692 0.36856345832 -0.1131623754 0.058076070377 0.20125025988 0.21479290234 0.28089934582 
0.49023493949 0.41035692797 0 0 0 0 0 0 0 
0 0 0 0 0 0 0 0 0 
0 0 0 -0.2242364401 0 0 -0.0033398315757 -0.024347005965 0 
0.059263878331 0 0 0.033285853752 0.063749352235 0.30676425222 0.54013837866 0.23942539349 0.12031170861 
0.2473621268 0.03480816074 -0.046969043379 -0.030455846299 -0.13148209482 0.060588070721 0.46636295952 -0.041962222183 -0.0040455574512 
0.085216024925 0.15444715698 0.19385217341 -0.29601357024 -0.12515575695 0.0027144567616 0.40681769659 0.0031608778464 0.075130807855 
0.21685694369 0.39106070499 0.65549064836 0.20258643739 0.086184417842 0 0 0 0 
0 0 0 0 0 0 0 0 0 
0 0 0 0 0 0 0 0 0 
0 0 0 0 0 0 -0.086394251616 0 0 
0.032745242031 0 0 0 -0.0050836363321 0 0.066932536341 0.10747644399 0.15218286261 
0.093702374012 0.18668103751 -0.17682811196 0.1615310727 0.1338725565 0.18094265342 -0.12195046632 0.059586491017 -0.074178514472 
-0.05428722008 -0.16176771136 -0.010534870749 -0.035555911567 -0.27794369206 -0.37721002148 0.036573182302 0.20727100835 0.41981519773 
0.26741790727 0.63783126463 1.037200958 0.44122294376 0.2414594769 0 0 0 0 
0 0 0 0 0 0 0 0 0 
0 0 0 0 0 0 0 0 0 
0 0 -0.051846113036 0 0 0 0 0.11918274914 0.29811463633 